 Entering Gaussian System, Link 0=gdv
 Input=benzophenone.gjf
 Output=benzophenone.log
 Initial command:
 /home/software/gaussian/gdv/j19p/gdv/l1.exe "/tmp/Gau-117561.inp" -scrdir="/tmp/"
 Entering Link 1 = /home/software/gaussian/gdv/j19p/gdv/l1.exe PID=    117562.
  
 Copyright (c) 1988-2022, Gaussian, Inc.  All Rights Reserved.
  
 This is the private, development version of
 the Gaussian(R) DV system of programs. It is based on
 the Gaussian(R) 16 system (copyright 2016, Gaussian, Inc.),
 the Gaussian(R) 09 system (copyright 2009, Gaussian, Inc.),
 the Gaussian(R) 03 system (copyright 2003, Gaussian, Inc.),
 the Gaussian(R) 98 system (copyright 1998, Gaussian, Inc.),
 the Gaussian(R) 94 system (copyright 1995, Gaussian, Inc.),
 the Gaussian 92(TM) system (copyright 1992, Gaussian, Inc.),
 the Gaussian 90(TM) system (copyright 1990, Gaussian, Inc.),
 the Gaussian 88(TM) system (copyright 1988, Gaussian, Inc.),
 the Gaussian 86(TM) system (copyright 1986, Carnegie Mellon
 University), and the Gaussian 82(TM) system (copyright 1983,
 Carnegie Mellon University). Gaussian is a federally registered
 trademark of Gaussian, Inc.
  
 This software contains proprietary and confidential information,
 including trade secrets, belonging to Gaussian, Inc.
  
 This software is provided under written license and may be
 used, copied, transmitted, or stored only in accord with that
 written license.
  
 The following legend is applicable only to US Government
 contracts under FAR:
  
                    RESTRICTED RIGHTS LEGEND
  
 Use, reproduction and disclosure by the US Government is
 subject to restrictions as set forth in subparagraphs (a)
 and (c) of the Commercial Computer Software - Restricted
 Rights clause in FAR 52.227-19.
  
 Gaussian, Inc.
 340 Quinnipiac St., Bldg. 40, Wallingford CT 06492
  
  
 ---------------------------------------------------------------
 Warning -- This program may not be used in any manner that
 competes with the business of Gaussian, Inc. or will provide
 assistance to any competitor of Gaussian, Inc.  The licensee
 of this program is prohibited from giving any competitor of
 Gaussian, Inc. access to this program.  By using this program,
 the user acknowledges that Gaussian, Inc. is engaged in the
 business of creating and licensing software in the field of
 computational chemistry and represents and warrants to the
 licensee that it is not a competitor of Gaussian, Inc. and that
 it will not use this program in any manner prohibited above.
 ---------------------------------------------------------------
  

 Cite this work as:
 Gaussian Development Version, Revision J.19+,
 M. J. Frisch, G. W. Trucks, H. B. Schlegel, G. E. Scuseria, 
 M. A. Robb, J. R. Cheeseman, G. Scalmani, V. Barone, 
 G. A. Petersson, H. Nakatsuji, X. Li, A. V. Marenich, M. Caricato, 
 J. Bloino, B. G. Janesko, J. Zheng, R. Gomperts, B. Mennucci, 
 H. P. Hratchian, J. V. Ortiz, A. F. Izmaylov, J. L. Sonnenberg, 
 D. Williams-Young, F. Ding, F. Lipparini, F. Egidi, J. Goings, 
 B. Peng, A. Petrone, T. Henderson, D. Ranasinghe, V. G. Zakrzewski, 
 J. Gao, N. Rega, G. Zheng, W. Liang, M. Hada, M. Ehara, K. Toyota, 
 R. Fukuda, J. Hasegawa, M. Ishida, T. Nakajima, Y. Honda, O. Kitao, 
 H. Nakai, T. Vreven, K. Throssell, J. A. Montgomery, Jr., 
 J. E. Peralta, F. Ogliaro, M. J. Bearpark, J. J. Heyd, 
 E. N. Brothers, K. N. Kudin, V. N. Staroverov, T. A. Keith, 
 R. Kobayashi, J. Normand, K. Raghavachari, A. P. Rendell, 
 J. C. Burant, S. S. Iyengar, J. Tomasi, M. Cossi, J. M. Millam, 
 M. Klene, C. Adamo, R. Cammi, J. W. Ochterski, R. L. Martin, 
 K. Morokuma, O. Farkas, J. B. Foresman, and D. J. Fox, 
 Gaussian, Inc., Wallingford CT, 2020.
 
 *******************************************
 Gaussian DV:  ES64L-GDVRevJ.19+ 26-Feb-2022
                  3-Jun-2024 
 *******************************************
 %chk=benzophenone.chk
 %nprocshared=25
 Will use up to   25 processors via shared memory.
 %mem=20GB
 ---------------------------------------------------------------------
 #p cam-b3lyp 6-311G(D) opt=readfc freq=raman guess=read geom=allcheck
 ---------------------------------------------------------------------
 1/10=3,18=20,19=15,26=3,29=7,38=1/1,3;
 2/9=110,12=2/2;
 3/5=4,6=6,7=1,11=2,14=-4,25=1,30=1,71=1,74=-40,116=-2/1,2,3;
 4/5=1/1;
 5/5=2,38=6/2;
 6/7=2,8=2,9=2,10=2,28=1/1;
 7//1,2,3,16;
 1/18=20,19=15,26=3/3(2);
 2/9=110/2;
 99//99;
 2/9=110/2;
 3/5=4,6=6,7=1,11=2,14=-2,25=1,30=1,71=1,74=-40/1,2,3;
 4/5=5,16=3,69=1/1;
 5/5=2,38=5/2;
 7//1,2,3,16;
 1/18=20,19=15,26=3/3(-5);
 2/9=110/2;
 6/7=2,8=2,9=2,10=2,19=2,28=1/1;
 99/9=1/99;
 Leave Link    1 at Mon Jun  3 14:32:58 2024, MaxMem=  2684354560 cpu:               0.2 elap:               0.0
 (Enter /home/software/gaussian/gdv/j19p/gdv/l101.exe)
 Structure from the checkpoint file:  "benzophenone.chk"
 -------------------
 Title Card Required
 -------------------
 Charge =  0 Multiplicity = 1
 Redundant internal coordinates found in file.  (old form).
 C,0,-2.1929014226,-2.1310275265,-0.0626760097
 C,0,-1.1599180462,-3.0317875898,0.1343943807
 C,0,0.143533792,-2.5840195967,0.3016751254
 C,0,0.4449244083,-1.2217047168,0.275629318
 C,0,-0.6144398523,-0.3281151934,0.0751277191
 C,0,-1.912879593,-0.7714097276,-0.0916288518
 H,0,-3.2095982949,-2.4850624704,-0.1928897712
 H,0,-1.3626939829,-4.0966090076,0.1595245479
 H,0,0.9021291742,-3.3319606732,0.4509028614
 H,0,-0.3877640429,0.7288727598,0.0539424178
 H,0,-2.7100224135,-0.0526584116,-0.2448912292
 C,0,4.6555396826,-3.1123521773,0.9893603744
 C,0,5.7255773663,-2.2407295031,1.1014020694
 C,0,5.5027122095,-0.874147229,0.9984698648
 C,0,4.2237225186,-0.3951452227,0.7863237042
 C,0,3.1276369343,-1.2588709992,0.6700053737
 C,0,3.3717225544,-2.6287405381,0.7762897477
 H,0,4.813550993,-4.1821699995,1.0675684996
 H,0,6.7267532035,-2.6227197806,1.2678330351
 H,0,6.3294317959,-0.1778946182,1.0838895007
 H,0,4.0414833246,0.6675060609,0.7049886361
 H,0,2.5822752385,-3.355233465,0.6979778436
 C,0,1.8005066092,-0.5643801884,0.4397444394
 O,0,1.8260121942,0.6481096642,0.3805102803
 Recover connectivity data from disk.
 ITRead=  0  0  0  0  0  0  0  0  0  0  0  0  0  0  0  0  0  0  0  0
 ITRead=  0  0  0  0
 MicOpt= -1 -1 -1 -1 -1 -1 -1 -1 -1 -1 -1 -1 -1 -1 -1 -1 -1 -1 -1 -1
 MicOpt= -1 -1 -1 -1
 NAtoms=     24 NQM=       24 NQMF=       0 NMMI=      0 NMMIF=      0
                NMic=       0 NMicF=      0.
                    Isotopes and Nuclear Properties:
 (Nuclear quadrupole moments (NQMom) in fm**2, nuclear magnetic moments (NMagM)
  in nuclear magnetons)

  Atom         1           2           3           4           5           6           7           8           9          10
 IAtWgt=          12          12          12          12          12          12           1           1           1           1
 AtmWgt=  12.0000000  12.0000000  12.0000000  12.0000000  12.0000000  12.0000000   1.0078250   1.0078250   1.0078250   1.0078250
 NucSpn=           0           0           0           0           0           0           1           1           1           1
 AtZEff=   3.6000000   3.6000000   3.6000000   3.6000000   3.6000000   3.6000000   1.0000000   1.0000000   1.0000000   1.0000000
 NQMom=    0.0000000   0.0000000   0.0000000   0.0000000   0.0000000   0.0000000   0.0000000   0.0000000   0.0000000   0.0000000
 NMagM=    0.0000000   0.0000000   0.0000000   0.0000000   0.0000000   0.0000000   2.7928460   2.7928460   2.7928460   2.7928460
 AtZNuc=   6.0000000   6.0000000   6.0000000   6.0000000   6.0000000   6.0000000   1.0000000   1.0000000   1.0000000   1.0000000

  Atom        11          12          13          14          15          16          17          18          19          20
 IAtWgt=           1          12          12          12          12          12          12           1           1           1
 AtmWgt=   1.0078250  12.0000000  12.0000000  12.0000000  12.0000000  12.0000000  12.0000000   1.0078250   1.0078250   1.0078250
 NucSpn=           1           0           0           0           0           0           0           1           1           1
 AtZEff=   1.0000000   3.6000000   3.6000000   3.6000000   3.6000000   3.6000000   3.6000000   1.0000000   1.0000000   1.0000000
 NQMom=    0.0000000   0.0000000   0.0000000   0.0000000   0.0000000   0.0000000   0.0000000   0.0000000   0.0000000   0.0000000
 NMagM=    2.7928460   0.0000000   0.0000000   0.0000000   0.0000000   0.0000000   0.0000000   2.7928460   2.7928460   2.7928460
 AtZNuc=   1.0000000   6.0000000   6.0000000   6.0000000   6.0000000   6.0000000   6.0000000   1.0000000   1.0000000   1.0000000

  Atom        21          22          23          24
 IAtWgt=           1           1          12          16
 AtmWgt=   1.0078250   1.0078250  12.0000000  15.9949146
 NucSpn=           1           1           0           0
 AtZEff=   1.0000000   1.0000000   3.6000000   5.6000000
 NQMom=    0.0000000   0.0000000   0.0000000   0.0000000
 NMagM=    2.7928460   2.7928460   0.0000000   0.0000000
 AtZNuc=   1.0000000   1.0000000   6.0000000   8.0000000
 Leave Link  101 at Mon Jun  3 14:32:59 2024, MaxMem=  2684354560 cpu:               0.7 elap:               0.5
 (Enter /home/software/gaussian/gdv/j19p/gdv/l103.exe)

 GradGradGradGradGradGradGradGradGradGradGradGradGradGradGradGradGradGrad
 Berny optimization.
 Initialization pass.
 Force constant matrix read from checkpoint file:
 "benzophenone.chk"
 NVar current= 128 chk= 128 common= 128.
                           ----------------------------
                           !    Initial Parameters    !
                           ! (Angstroms and Degrees)  !
 --------------------------                            --------------------------
 ! Name  Definition              Value          Derivative Info.                !
 --------------------------------------------------------------------------------
 ! R1    R(1,2)                  1.3847         D2E/DX2 =    0.4146             !
 ! R2    R(1,6)                  1.3885         D2E/DX2 =    0.4067             !
 ! R3    R(1,7)                  1.0844         D2E/DX2 =    0.3615             !
 ! R4    R(2,3)                  1.3883         D2E/DX2 =    0.4065             !
 ! R5    R(2,8)                  1.0842         D2E/DX2 =    0.3613             !
 ! R6    R(3,4)                  1.3955         D2E/DX2 =    0.3482             !
 ! R7    R(3,9)                  1.0757         D2E/DX2 =    0.3536             !
 ! R8    R(4,5)                  1.4003         D2E/DX2 =    0.3864             !
 ! R9    R(4,23)                 1.5155         D2E/DX2 =    0.2709             !
 ! R10   R(5,6)                  1.3821         D2E/DX2 =    0.4179             !
 ! R11   R(5,10)                 1.0812         D2E/DX2 =    0.3712             !
 ! R12   R(6,11)                 1.0842         D2E/DX2 =    0.3615             !
 ! R13   R(9,22)                 1.6984         D2E/DX2 =    0.0229             !
 ! R14   R(12,13)                1.3847         D2E/DX2 =    0.4146             !
 ! R15   R(12,17)                1.3883         D2E/DX2 =    0.4065             !
 ! R16   R(12,18)                1.0842         D2E/DX2 =    0.3613             !
 ! R17   R(13,14)                1.3885         D2E/DX2 =    0.4067             !
 ! R18   R(13,19)                1.0844         D2E/DX2 =    0.3615             !
 ! R19   R(14,15)                1.3821         D2E/DX2 =    0.4179             !
 ! R20   R(14,20)                1.0842         D2E/DX2 =    0.3615             !
 ! R21   R(15,16)                1.4003         D2E/DX2 =    0.3864             !
 ! R22   R(15,21)                1.0812         D2E/DX2 =    0.3712             !
 ! R23   R(16,17)                1.3955         D2E/DX2 =    0.3482             !
 ! R24   R(16,23)                1.5155         D2E/DX2 =    0.2709             !
 ! R25   R(17,22)                1.0757         D2E/DX2 =    0.3536             !
 ! R26   R(23,24)                1.2142         D2E/DX2 =    0.8177             !
 ! A1    A(2,1,6)              119.3098         D2E/DX2 =    0.0838             !
 ! A2    A(2,1,7)              120.2744         D2E/DX2 =    0.083              !
 ! A3    A(6,1,7)              120.4158         D2E/DX2 =    0.0831             !
 ! A4    A(1,2,3)              120.5142         D2E/DX2 =    0.0836             !
 ! A5    A(1,2,8)              120.1757         D2E/DX2 =    0.0838             !
 ! A6    A(3,2,8)              119.3101         D2E/DX2 =    0.0844             !
 ! A7    A(2,3,4)              121.0224         D2E/DX2 =    0.0822             !
 ! A8    A(2,3,9)              117.0363         D2E/DX2 =    0.0819             !
 ! A9    A(4,3,9)              121.9413         D2E/DX2 =    0.0547             !
 ! A10   A(3,4,5)              117.5315         D2E/DX2 =    0.0887             !
 ! A11   A(3,4,23)             127.9229         D2E/DX2 =    0.0785             !
 ! A12   A(5,4,23)             114.5456         D2E/DX2 =    0.1304             !
 ! A13   A(4,5,6)              121.5544         D2E/DX2 =    0.0846             !
 ! A14   A(4,5,10)             117.9061         D2E/DX2 =    0.084              !
 ! A15   A(6,5,10)             120.5396         D2E/DX2 =    0.0835             !
 ! A16   A(1,6,5)              120.0678         D2E/DX2 =    0.0839             !
 ! A17   A(1,6,11)             120.2531         D2E/DX2 =    0.0837             !
 ! A18   A(5,6,11)             119.6791         D2E/DX2 =    0.0839             !
 ! A19   A(3,9,22)             136.6642         D2E/DX2 =    0.031              !
 ! A20   A(13,12,17)           120.5142         D2E/DX2 =    0.0836             !
 ! A21   A(13,12,18)           120.1757         D2E/DX2 =    0.0838             !
 ! A22   A(17,12,18)           119.3101         D2E/DX2 =    0.0844             !
 ! A23   A(12,13,14)           119.3098         D2E/DX2 =    0.0838             !
 ! A24   A(12,13,19)           120.2744         D2E/DX2 =    0.083              !
 ! A25   A(14,13,19)           120.4158         D2E/DX2 =    0.0831             !
 ! A26   A(13,14,15)           120.0678         D2E/DX2 =    0.0839             !
 ! A27   A(13,14,20)           120.2531         D2E/DX2 =    0.0837             !
 ! A28   A(15,14,20)           119.6791         D2E/DX2 =    0.0839             !
 ! A29   A(14,15,16)           121.5544         D2E/DX2 =    0.0846             !
 ! A30   A(14,15,21)           120.5396         D2E/DX2 =    0.0835             !
 ! A31   A(16,15,21)           117.9061         D2E/DX2 =    0.084              !
 ! A32   A(15,16,17)           117.5315         D2E/DX2 =    0.0887             !
 ! A33   A(15,16,23)           114.5456         D2E/DX2 =    0.1304             !
 ! A34   A(17,16,23)           127.9229         D2E/DX2 =    0.0785             !
 ! A35   A(12,17,16)           121.0224         D2E/DX2 =    0.0822             !
 ! A36   A(12,17,22)           117.0363         D2E/DX2 =    0.0819             !
 ! A37   A(16,17,22)           121.9413         D2E/DX2 =    0.0547             !
 ! A38   A(9,22,17)            136.6642         D2E/DX2 =    0.031              !
 ! A39   A(4,23,16)            126.9432         D2E/DX2 =    0.0779             !
 ! A40   A(4,23,24)            116.5284         D2E/DX2 =    0.217              !
 ! A41   A(16,23,24)           116.5284         D2E/DX2 =    0.217              !
 ! D1    D(6,1,2,3)             -0.0006         D2E/DX2 =    0.0091             !
 ! D2    D(6,1,2,8)            179.9975         D2E/DX2 =    0.0083             !
 ! D3    D(7,1,2,3)           -179.9988         D2E/DX2 =    0.0084             !
 ! D4    D(7,1,2,8)             -0.0007         D2E/DX2 =    0.0091             !
 ! D5    D(2,1,6,5)              0.0016         D2E/DX2 =    0.0092             !
 ! D6    D(2,1,6,11)          -179.9982         D2E/DX2 =    0.0086             !
 ! D7    D(7,1,6,5)            179.9998         D2E/DX2 =    0.0084             !
 ! D8    D(7,1,6,11)             0.0            D2E/DX2 =    0.0092             !
 ! D9    D(1,2,3,4)             -0.0029         D2E/DX2 =    0.0081             !
 ! D10   D(1,2,3,9)            179.9962         D2E/DX2 =    0.0063             !
 ! D11   D(8,2,3,4)            179.999          D2E/DX2 =    0.0077             !
 ! D12   D(8,2,3,9)             -0.0018         D2E/DX2 =    0.0074             !
 ! D13   D(2,3,4,5)              0.0052         D2E/DX2 =    0.0066             !
 ! D14   D(2,3,4,23)          -179.9999         D2E/DX2 =    0.0055             !
 ! D15   D(9,3,4,5)           -179.9939         D2E/DX2 =    0.0051             !
 ! D16   D(9,3,4,23)             0.0009         D2E/DX2 =    0.0036             !
 ! D17   D(2,3,9,22)          -179.9724         D2E/DX2 =    0.0029             !
 ! D18   D(4,3,9,22)             0.0268         D2E/DX2 =    0.0022             !
 ! D19   D(3,4,5,6)             -0.0041         D2E/DX2 =    0.0073             !
 ! D20   D(3,4,5,10)           179.9959         D2E/DX2 =    0.0076             !
 ! D21   D(23,4,5,6)          -179.9997         D2E/DX2 =    0.006              !
 ! D22   D(23,4,5,10)            0.0004         D2E/DX2 =    0.0079             !
 ! D23   D(3,4,23,16)           -0.037          D2E/DX2 =    0.0051             !
 ! D24   D(3,4,23,24)          179.968          D2E/DX2 =    0.0079             !
 ! D25   D(5,4,23,16)          179.958          D2E/DX2 =    0.0056             !
 ! D26   D(5,4,23,24)           -0.0369         D2E/DX2 =    0.0104             !
 ! D27   D(4,5,6,1)              0.0008         D2E/DX2 =    0.0091             !
 ! D28   D(4,5,6,11)          -179.9994         D2E/DX2 =    0.0087             !
 ! D29   D(10,5,6,1)          -179.9993         D2E/DX2 =    0.0088             !
 ! D30   D(10,5,6,11)            0.0006         D2E/DX2 =    0.0098             !
 ! D31   D(3,9,22,17)           -0.0084         D2E/DX2 =   -0.0001             !
 ! D32   D(17,12,13,14)          0.0006         D2E/DX2 =    0.0091             !
 ! D33   D(17,12,13,19)        179.9988         D2E/DX2 =    0.0084             !
 ! D34   D(18,12,13,14)       -179.9975         D2E/DX2 =    0.0083             !
 ! D35   D(18,12,13,19)          0.0007         D2E/DX2 =    0.0091             !
 ! D36   D(13,12,17,16)          0.0028         D2E/DX2 =    0.0081             !
 ! D37   D(13,12,17,22)       -179.9965         D2E/DX2 =    0.0063             !
 ! D38   D(18,12,17,16)       -179.999          D2E/DX2 =    0.0077             !
 ! D39   D(18,12,17,22)          0.0016         D2E/DX2 =    0.0074             !
 ! D40   D(12,13,14,15)         -0.0015         D2E/DX2 =    0.0092             !
 ! D41   D(12,13,14,20)        179.9982         D2E/DX2 =    0.0086             !
 ! D42   D(19,13,14,15)       -179.9997         D2E/DX2 =    0.0084             !
 ! D43   D(19,13,14,20)          0.0            D2E/DX2 =    0.0092             !
 ! D44   D(13,14,15,16)         -0.0009         D2E/DX2 =    0.0091             !
 ! D45   D(13,14,15,21)        179.9991         D2E/DX2 =    0.0088             !
 ! D46   D(20,14,15,16)        179.9993         D2E/DX2 =    0.0087             !
 ! D47   D(20,14,15,21)         -0.0007         D2E/DX2 =    0.0098             !
 ! D48   D(14,15,16,17)          0.0042         D2E/DX2 =    0.0073             !
 ! D49   D(14,15,16,23)        179.9992         D2E/DX2 =    0.006              !
 ! D50   D(21,15,16,17)       -179.9958         D2E/DX2 =    0.0076             !
 ! D51   D(21,15,16,23)         -0.0007         D2E/DX2 =    0.0079             !
 ! D52   D(15,16,17,12)         -0.0051         D2E/DX2 =    0.0066             !
 ! D53   D(15,16,17,22)        179.9942         D2E/DX2 =    0.0051             !
 ! D54   D(23,16,17,12)       -179.9994         D2E/DX2 =    0.0055             !
 ! D55   D(23,16,17,22)         -0.0001         D2E/DX2 =    0.0036             !
 ! D56   D(15,16,23,4)        -179.96           D2E/DX2 =    0.0056             !
 ! D57   D(15,16,23,24)          0.0349         D2E/DX2 =    0.0104             !
 ! D58   D(17,16,23,4)           0.0344         D2E/DX2 =    0.0051             !
 ! D59   D(17,16,23,24)       -179.9706         D2E/DX2 =    0.0079             !
 ! D60   D(12,17,22,9)         179.9811         D2E/DX2 =    0.0029             !
 ! D61   D(16,17,22,9)          -0.0182         D2E/DX2 =    0.0022             !
 --------------------------------------------------------------------------------
 Trust Radius=3.00D-01 FncErr=1.00D-07 GrdErr=1.00D-06 EigMax=2.50D+02 EigMin=1.00D-04
 Number of steps in this run=    138 maximum allowed number of steps=    144.
 GradGradGradGradGradGradGradGradGradGradGradGradGradGradGradGradGradGrad

 Leave Link  103 at Mon Jun  3 14:32:59 2024, MaxMem=  2684354560 cpu:               0.1 elap:               0.1
 (Enter /home/software/gaussian/gdv/j19p/gdv/l202.exe)
                          Input orientation:                          
 ---------------------------------------------------------------------
 Center     Atomic      Atomic             Coordinates (Angstroms)
 Number     Number       Type             X           Y           Z
 ---------------------------------------------------------------------
      1          6           0       -2.192901   -2.131028   -0.062676
      2          6           0       -1.159918   -3.031788    0.134394
      3          6           0        0.143534   -2.584020    0.301675
      4          6           0        0.444924   -1.221705    0.275629
      5          6           0       -0.614440   -0.328115    0.075128
      6          6           0       -1.912880   -0.771410   -0.091629
      7          1           0       -3.209598   -2.485062   -0.192890
      8          1           0       -1.362694   -4.096609    0.159525
      9          1           0        0.902129   -3.331961    0.450903
     10          1           0       -0.387764    0.728873    0.053942
     11          1           0       -2.710022   -0.052658   -0.244891
     12          6           0        4.655540   -3.112352    0.989360
     13          6           0        5.725577   -2.240730    1.101402
     14          6           0        5.502712   -0.874147    0.998470
     15          6           0        4.223723   -0.395145    0.786324
     16          6           0        3.127637   -1.258871    0.670005
     17          6           0        3.371723   -2.628741    0.776290
     18          1           0        4.813551   -4.182170    1.067568
     19          1           0        6.726753   -2.622720    1.267833
     20          1           0        6.329432   -0.177895    1.083890
     21          1           0        4.041483    0.667506    0.704989
     22          1           0        2.582275   -3.355233    0.697978
     23          6           0        1.800507   -0.564380    0.439744
     24          8           0        1.826012    0.648110    0.380510
 ---------------------------------------------------------------------
                    Distance matrix (angstroms):
                    1          2          3          4          5
     1  C    0.000000
     2  C    1.384652   0.000000
     3  C    2.407672   1.388332   0.000000
     4  C    2.810595   2.423193   1.395499   0.000000
     5  C    2.400213   2.758787   2.390597   1.400341   0.000000
     6  C    1.388456   2.393187   2.769310   2.428350   1.382123
     7  H    1.084421   2.146442   3.390853   3.895012   3.385130
     8  H    2.145257   1.084248   2.139359   3.397946   3.842987
     9  H    3.359348   2.107681   1.075710   2.166319   3.385894
    10  H    3.383955   3.839956   3.364358   2.132432   1.081228
    11  H    2.149473   3.379629   3.853480   3.404600   2.137698
    12  C    6.997923   5.878521   4.594588   4.670465   6.029965
    13  C    8.004337   6.997923   5.649480   5.441104   6.701280
    14  C    7.869450   7.056393   5.668331   5.120987   6.210496
    15  C    6.701280   6.029965   4.655534   3.901708   4.890614
    16  C    5.441104   4.670465   3.285812   2.711800   3.901708
    17  C    5.649480   4.594588   3.263198   3.285812   4.655534
    18  H    7.387490   6.154391   4.994971   5.336330   6.730658
    19  H    9.031736   7.978195   6.653851   6.512195   7.783371
    20  H    8.818135   8.070725   6.683310   6.030775   7.018370
    21  H    6.876675   6.408192   5.092062   4.085181   4.802667
    22  H    4.987944   3.798191   2.588298   3.049359   4.446389
    23  C    4.319041   3.865935   2.616021   1.515458   2.453718
    24  O    4.906290   4.745313   3.644668   2.326931   2.646144
                    6          7          8          9         10
     6  C    0.000000
     7  H    2.151357   0.000000
     8  H    3.379753   2.476355   0.000000
     9  H    3.843831   4.247118   2.408114   0.000000
    10  H    2.144298   4.284046   4.924115   4.279225   0.000000
    11  H    1.084218   2.483721   4.281633   4.928041   2.468396
    12  C    7.056393   7.978195   6.154391   3.798191   6.408192
    13  C    7.869450   9.031736   7.387490   4.987944   6.876675
    14  C    7.495990   8.939728   7.630327   5.244620   6.177339
    15  C    6.210496   7.783371   6.730658   4.446389   4.802667
    16  C    5.120987   6.512195   5.336330   3.049359   4.085181
    17  C    5.668331   6.653851   4.994971   2.588298   5.092062
    18  H    7.630327   8.296979   6.243226   4.049982   7.224919
    19  H    8.939728  10.044090   8.296979   5.924242   7.957579
    20  H    8.346844   9.896781   8.682141   6.309074   6.855927
    21  H    6.177339   7.957579   7.224919   5.090760   4.477260
    22  H    5.244620   5.924242   4.049982   1.698375   5.090760
    23  C    3.756921   5.402814   4.749842   2.909761   2.570968
    24  O    4.027066   5.958433   5.720930   4.086499   2.239191
                   11         12         13         14         15
    11  H    0.000000
    12  C    8.070725   0.000000
    13  C    8.818135   1.384652   0.000000
    14  C    8.346844   2.393187   1.388456   0.000000
    15  C    7.018370   2.758787   2.400213   1.382123   0.000000
    16  C    6.030775   2.423194   2.810595   2.428350   1.400341
    17  C    6.683310   1.388332   2.407672   2.769310   2.390597
    18  H    8.682141   1.084248   2.145257   3.379753   3.842987
    19  H    9.896782   2.146442   1.084421   2.151357   3.385130
    20  H    9.137454   3.379629   2.149473   1.084218   2.137698
    21  H    6.855927   3.839956   3.383955   2.144298   1.081228
    22  H    6.309074   2.107681   3.359348   3.843831   3.385894
    23  C    4.590801   3.865935   4.319041   3.756921   2.453718
    24  O    4.632258   4.745313   4.906290   4.027066   2.646144
                   16         17         18         19         20
    16  C    0.000000
    17  C    1.395499   0.000000
    18  H    3.397946   2.139359   0.000000
    19  H    3.895012   3.390853   2.476355   0.000000
    20  H    3.404600   3.853480   4.281633   2.483721   0.000000
    21  H    2.132432   3.364358   4.924115   4.284046   2.468396
    22  H    2.166319   1.075710   2.408114   4.247118   4.928041
    23  C    1.515458   2.616021   4.749842   5.402814   4.590801
    24  O    2.326931   3.644669   5.720930   5.958433   4.632258
                   21         22         23         24
    21  H    0.000000
    22  H    4.279225   0.000000
    23  C    2.570968   2.909761   0.000000
    24  O    2.239191   4.086499   1.214204   0.000000
 Stoichiometry    C13H10O
 Framework group  C1[X(C13H10O)]
 Deg. of freedom    66
 Full point group                 C1      NOp   1
 RotChk:  IX=1 Diff= 5.34D-16
 Largest Abelian subgroup         C1      NOp   1
 Largest concise Abelian subgroup C1      NOp   1
                         Standard orientation:                         
 ---------------------------------------------------------------------
 Center     Atomic      Atomic             Coordinates (Angstroms)
 Number     Number       Type             X           Y           Z
 ---------------------------------------------------------------------
      1          6           0        4.002169   -0.722557   -0.000414
      2          6           0        2.939260   -1.609961    0.000104
      3          6           0        1.631599   -1.143606    0.000400
      4          6           0        1.355900    0.224388    0.000245
      5          6           0        2.445307    1.104245   -0.000330
      6          6           0        3.747995    0.642436   -0.000647
      7          1           0        5.022045   -1.091097   -0.000664
      8          1           0        3.121613   -2.678765    0.000250
      9          1           0        0.849188   -1.881836    0.000736
     10          1           0        2.238630    2.165536   -0.000520
     11          1           0        4.568727    1.350905   -0.001082
     12          6           0       -2.939260   -1.609961    0.000049
     13          6           0       -4.002169   -0.722557   -0.000424
     14          6           0       -3.747995    0.642436   -0.000606
     15          6           0       -2.445307    1.104245   -0.000285
     16          6           0       -1.355900    0.224388    0.000245
     17          6           0       -1.631599   -1.143606    0.000350
     18          1           0       -3.121613   -2.678765    0.000156
     19          1           0       -5.022045   -1.091097   -0.000678
     20          1           0       -4.568727    1.350905   -0.001004
     21          1           0       -2.238630    2.165536   -0.000439
     22          1           0       -0.849188   -1.881836    0.000655
     23          6           0        0.000000    0.901254    0.000520
     24          8           0        0.000000    2.115457    0.000919
 ---------------------------------------------------------------------
 Rotational constants (GHZ):           1.9080613           0.3874042           0.3220222
 Leave Link  202 at Mon Jun  3 14:32:59 2024, MaxMem=  2684354560 cpu:               0.2 elap:               0.0
 (Enter /home/software/gaussian/gdv/j19p/gdv/l301.exe)
 Standard basis: 6-311G(d) (5D, 7F)
 Ernie: Thresh=  0.10000D-02 Tol=  0.10000D-05 Strict=F.
 There are   296 symmetry adapted cartesian basis functions of A   symmetry.
 There are   282 symmetry adapted basis functions of A   symmetry.
   282 basis functions,   498 primitive gaussians,   296 cartesian basis functions
    48 alpha electrons       48 beta electrons
       nuclear repulsion energy       770.7831296189 Hartrees.
 IExCor=   2004019 DFT=T Ex+Corr=CAM-B3LYP ScaHFX=  1.000000
 ScaDFX=  1.000000  1.000000  1.000000  0.810000  1.000000  0.000000
 ScaDFX=  0.000000  0.000000  0.000000  0.000000  0.000000  0.000000
 IRadAn=      5 IRanWt=     -1 IRanGd=            0 ICorTp=0 IEmpDi=  4
 HFx  wShort=  0.000000 wLong=  0.330000 cFull=  0.190000 cShort=  0.000000 cLong=  0.460000
 DFx  wShort=  0.330000 wLong=  0.000000 cFull=  0.350000 cShort=  0.460000 cLong=  0.000000
 NAtoms=   24 NActive=   24 NUniq=   24 SFac= 1.00D+00 NAtFMM=   60 NAOKFM=F Big=F
 Integral buffers will be    131072 words long.
 Raffenetti 2 integral format.
 Two-electron integral symmetry is turned on.
 Leave Link  301 at Mon Jun  3 14:32:59 2024, MaxMem=  2684354560 cpu:               0.3 elap:               0.1
 (Enter /home/software/gaussian/gdv/j19p/gdv/l302.exe)
 NPDir=0 NMtPBC=     1 NCelOv=     1 NCel=       1 NClECP=     1 NCelD=      1
         NCelK=      1 NCelE2=     1 NClLst=     1 CellRange=     0.0.
 One-electron integrals computed using PRISM.
 One-electron integral symmetry used in STVInt
 NBasis=   282 RedAO= T EigKep=  1.60D-04  NBF=   282
 NBsUse=   282 1.00D-06 EigRej= -1.00D+00 NBFU=   282
 Precomputing XC quadrature grid using
 IXCGrd= 4 IRadAn=           5 IRanWt=          -1 IRanGd=           0 AccXCQ= 0.00D+00.
 Generated NRdTot=       0 NPtTot=      513637 NUsed=           0 NTot=          64
 NSgBfM=   296   296   296   296   296 MxSgAt=    24 MxSgA2=    24 SizInc=   0.000
 NMBTot=     4407 MaxBatPerAtom=       86 MaxMicBPerAtom=      206 NBfPt=            98316501.
 Leave Link  302 at Mon Jun  3 14:32:59 2024, MaxMem=  2684354560 cpu:               3.3 elap:               0.2
 (Enter /home/software/gaussian/gdv/j19p/gdv/l303.exe)
 DipDrv:  MaxL=1.
 Leave Link  303 at Mon Jun  3 14:32:59 2024, MaxMem=  2684354560 cpu:               0.3 elap:               0.1
 (Enter /home/software/gaussian/gdv/j19p/gdv/l401.exe)
 Initial guess from the checkpoint file:  "benzophenone.chk"
 B after Tr=     0.000000    0.000000   -0.000000
         Rot=    1.000000   -0.000000   -0.000000    0.000000 Ang=   0.00 deg.
 AO Guess basis will be translated and rotated to current coordinates.
 JPrj=2 DoOrth=T DoCkMO=T.
 Leave Link  401 at Mon Jun  3 14:32:59 2024, MaxMem=  2684354560 cpu:               1.5 elap:               0.1
 (Enter /home/software/gaussian/gdv/j19p/gdv/l502.exe)
 Integral symmetry usage will be decided dynamically.
 Closed shell SCF:
 Using DIIS extrapolation, IDIIS=  1040.
 NGot=  2684354560 LenX=  2684092698 LenY=  2684004641
 Requested convergence on RMS density matrix=1.00D-08 within 128 cycles.
 Requested convergence on MAX density matrix=1.00D-06.
 Requested convergence on             energy=1.00D-06.
 No special actions if energy rises.
 Fock matrices will be formed incrementally for  20 cycles.

 Cycle   1  Pass 1  IDiag  1:
 FoFJK:  IHMeth= 1 ICntrl=       0 DoSepK=T KAlg= 0 I1Cent=           0 FoldK=F
 IRaf=         1 NMat=       1 IRICut=       1 DoRegI=T DoRafI=F ISym2E= 0 IDoP0=0 IntGTp=1.
 FoFCou: FMM=F IPFlag=           0 FMFlag=      100000 FMFlg1=           0
         NFxFlg=           0 DoJE=T BraDBF=F KetDBF=F FulRan=T
         wScrn=  0.000000 ICntrl=       500 IOpCl=  0 I1Cent=           0 NGrid=           0
         NMat0=    1 NMatS0=      1 NMatT0=    0 NMatD0=    1 NMtDS0=    0 NMtDT0=    0
 Symmetry not used in FoFCou.
 E= -576.427427253902    
 DIIS: error= 5.35D-08 at cycle   1 NSaved=   1.
 NSaved= 1 IEnMin= 1 EnMin= -576.427427253902     IErMin= 1 ErrMin= 5.35D-08
 ErrMax= 5.35D-08  0.00D+00 EMaxC= 1.00D-01 BMatC= 1.76D-13 BMatP= 1.76D-13
 IDIUse=1 WtCom= 1.00D+00 WtEn= 0.00D+00
 Coeff-Com:  0.100D+01
 Coeff:      0.100D+01
 Gap=     0.283 Goal=   None    Shift=    0.000
 RMSDP=2.83D-09 MaxDP=8.20D-08              OVMax= 3.18D-07

 SCF Done:  E(RCAM-B3LYP) =  -576.427427254     A.U. after    1 cycles
            NFock=  1  Conv=0.28D-08     -V/T= 2.0031
 KE= 5.746332378148D+02 PE=-2.882962984757D+03 EE= 9.611191900697D+02
 Leave Link  502 at Mon Jun  3 14:33:00 2024, MaxMem=  2684354560 cpu:              23.6 elap:               1.1
 (Enter /home/software/gaussian/gdv/j19p/gdv/l601.exe)
 Copying SCF densities to generalized density rwf, IOpCl= 0 IROHF=0.

 **********************************************************************

            Population analysis using the SCF Density.

 **********************************************************************

 Orbital symmetries:
       Occupied  (A) (A) (A) (A) (A) (A) (A) (A) (A) (A) (A) (A)
                 (A) (A) (A) (A) (A) (A) (A) (A) (A) (A) (A) (A)
                 (A) (A) (A) (A) (A) (A) (A) (A) (A) (A) (A) (A)
                 (A) (A) (A) (A) (A) (A) (A) (A) (A) (A) (A) (A)
       Virtual   (A) (A) (A) (A) (A) (A) (A) (A) (A) (A) (A) (A)
                 (A) (A) (A) (A) (A) (A) (A) (A) (A) (A) (A) (A)
                 (A) (A) (A) (A) (A) (A) (A) (A) (A) (A) (A) (A)
                 (A) (A) (A) (A) (A) (A) (A) (A) (A) (A) (A) (A)
                 (A) (A) (A) (A) (A) (A) (A) (A) (A) (A) (A) (A)
                 (A) (A) (A) (A) (A) (A) (A) (A) (A) (A) (A) (A)
                 (A) (A) (A) (A) (A) (A) (A) (A) (A) (A) (A) (A)
                 (A) (A) (A) (A) (A) (A) (A) (A) (A) (A) (A) (A)
                 (A) (A) (A) (A) (A) (A) (A) (A) (A) (A) (A) (A)
                 (A) (A) (A) (A) (A) (A) (A) (A) (A) (A) (A) (A)
                 (A) (A) (A) (A) (A) (A) (A) (A) (A) (A) (A) (A)
                 (A) (A) (A) (A) (A) (A) (A) (A) (A) (A) (A) (A)
                 (A) (A) (A) (A) (A) (A) (A) (A) (A) (A) (A) (A)
                 (A) (A) (A) (A) (A) (A) (A) (A) (A) (A) (A) (A)
                 (A) (A) (A) (A) (A) (A) (A) (A) (A) (A) (A) (A)
                 (A) (A) (A) (A) (A) (A) (A) (A) (A) (A) (A) (A)
                 (A) (A) (A) (A) (A) (A) (A) (A) (A) (A) (A) (A)
                 (A) (A) (A) (A) (A) (A) (A) (A) (A) (A) (A) (A)
                 (A) (A) (A) (A) (A) (A) (A) (A) (A) (A) (A) (A)
                 (A) (A) (A) (A) (A) (A)
 The electronic state is 1-A.
 Alpha  occ. eigenvalues --      -19.17859     -10.34421     -10.26510     -10.26509     -10.26096
 Alpha  occ. eigenvalues --      -10.26095     -10.25818     -10.25818     -10.25481     -10.25480
 Alpha  occ. eigenvalues --      -10.25235     -10.25235     -10.25038     -10.25037      -1.13321
 Alpha  occ. eigenvalues --       -0.95632      -0.95379      -0.85975      -0.84447      -0.83991
 Alpha  occ. eigenvalues --       -0.83746      -0.73475      -0.70201      -0.69624      -0.68217
 Alpha  occ. eigenvalues --       -0.64153      -0.61327      -0.58982      -0.54859      -0.54097
 Alpha  occ. eigenvalues --       -0.53049      -0.52837      -0.50459      -0.50215      -0.49729
 Alpha  occ. eigenvalues --       -0.49493      -0.48974      -0.44968      -0.44189      -0.43139
 Alpha  occ. eigenvalues --       -0.42546      -0.41573      -0.40741      -0.32633      -0.32518
 Alpha  occ. eigenvalues --       -0.31879      -0.31790      -0.31496
 Alpha virt. eigenvalues --       -0.03210       0.02930       0.02939       0.03882       0.07522
 Alpha virt. eigenvalues --        0.09152       0.10841       0.11153       0.12276       0.12967
 Alpha virt. eigenvalues --        0.14514       0.16328       0.17212       0.18335       0.21124
 Alpha virt. eigenvalues --        0.23467       0.24515       0.25600       0.27834       0.30753
 Alpha virt. eigenvalues --        0.31304       0.32483       0.33200       0.33522       0.33643
 Alpha virt. eigenvalues --        0.34334       0.34709       0.38996       0.39297       0.41431
 Alpha virt. eigenvalues --        0.42879       0.44182       0.44854       0.45707       0.45929
 Alpha virt. eigenvalues --        0.46280       0.46351       0.47753       0.48211       0.49182
 Alpha virt. eigenvalues --        0.49751       0.49980       0.50129       0.50613       0.50961
 Alpha virt. eigenvalues --        0.52131       0.52280       0.55004       0.55524       0.56698
 Alpha virt. eigenvalues --        0.56711       0.59413       0.62492       0.62844       0.63923
 Alpha virt. eigenvalues --        0.64706       0.65293       0.65959       0.66356       0.66369
 Alpha virt. eigenvalues --        0.67716       0.68345       0.69526       0.70726       0.71002
 Alpha virt. eigenvalues --        0.71758       0.72887       0.73960       0.75901       0.78176
 Alpha virt. eigenvalues --        0.79530       0.80021       0.80033       0.83525       0.85742
 Alpha virt. eigenvalues --        0.85841       0.88233       0.88433       0.89454       0.90482
 Alpha virt. eigenvalues --        0.92035       0.92299       0.94842       0.94995       0.96625
 Alpha virt. eigenvalues --        0.98476       1.02462       1.04311       1.05448       1.07353
 Alpha virt. eigenvalues --        1.07537       1.07857       1.10086       1.10727       1.13731
 Alpha virt. eigenvalues --        1.15350       1.17508       1.17544       1.18347       1.23218
 Alpha virt. eigenvalues --        1.24873       1.26800       1.27022       1.28999       1.29060
 Alpha virt. eigenvalues --        1.30028       1.30156       1.31991       1.35233       1.37707
 Alpha virt. eigenvalues --        1.46384       1.49535       1.51059       1.52372       1.55342
 Alpha virt. eigenvalues --        1.55406       1.56086       1.57416       1.57558       1.62504
 Alpha virt. eigenvalues --        1.63029       1.64815       1.72708       1.74567       1.76599
 Alpha virt. eigenvalues --        1.78966       1.83008       1.83073       1.83570       1.85154
 Alpha virt. eigenvalues --        1.86252       1.87563       1.89844       1.91640       1.92836
 Alpha virt. eigenvalues --        1.93836       1.96900       1.98279       1.98500       1.99278
 Alpha virt. eigenvalues --        1.99438       1.99445       2.00385       2.05238       2.06159
 Alpha virt. eigenvalues --        2.08191       2.17495       2.18772       2.25597       2.29078
 Alpha virt. eigenvalues --        2.30185       2.32901       2.34410       2.34751       2.34832
 Alpha virt. eigenvalues --        2.35692       2.36528       2.39705       2.41755       2.42177
 Alpha virt. eigenvalues --        2.43308       2.44622       2.46671       2.56766       2.57155
 Alpha virt. eigenvalues --        2.60517       2.65744       2.69628       2.74079       2.74164
 Alpha virt. eigenvalues --        2.75638       2.77247       2.78698       2.82381       2.83569
 Alpha virt. eigenvalues --        2.86106       2.88916       2.89304       2.92440       2.95662
 Alpha virt. eigenvalues --        2.96540       2.96583       3.01874       3.05296       3.09530
 Alpha virt. eigenvalues --        3.11882       3.12460       3.17644       3.25046       3.28059
 Alpha virt. eigenvalues --        3.33560       3.33891       3.36130       3.36271       3.37621
 Alpha virt. eigenvalues --        3.38400       3.38417       3.39711       3.40701       3.46124
 Alpha virt. eigenvalues --        3.47093       3.53119       3.54976       3.60222       3.63103
 Alpha virt. eigenvalues --        3.64513       3.66661       3.77914       3.80019       3.94678
 Alpha virt. eigenvalues --        3.94764       4.03076       4.07517       4.20657       4.55375
 Alpha virt. eigenvalues --        4.86807       4.86969       4.96909       5.22132       5.71903
 Alpha virt. eigenvalues --       23.25561      23.33317      23.87169      23.87392      23.87973
 Alpha virt. eigenvalues --       23.90047      23.90578      24.09493      24.10426      24.12820
 Alpha virt. eigenvalues --       24.13185      24.22741      24.23060      50.03153
          Condensed to atoms (all electrons):
               1          2          3          4          5          6
     1  C    4.926791   0.540353  -0.050441  -0.036869  -0.045077   0.519230
     2  C    0.540353   4.904106   0.544514  -0.025119  -0.036137  -0.048084
     3  C   -0.050441   0.544514   4.992682   0.526603  -0.088680  -0.044433
     4  C   -0.036869  -0.025119   0.526603   5.342423   0.450321  -0.043549
     5  C   -0.045077  -0.036137  -0.088680   0.450321   5.026400   0.510230
     6  C    0.519230  -0.048084  -0.044433  -0.043549   0.510230   4.964853
     7  H    0.401405  -0.041276   0.006429  -0.000486   0.005923  -0.042183
     8  H   -0.040892   0.403392  -0.040722   0.005119  -0.000055   0.005741
     9  H    0.005904  -0.040675   0.378071  -0.041854   0.004674  -0.000284
    10  H    0.005472  -0.000658   0.005943  -0.046307   0.391866  -0.038604
    11  H   -0.042624   0.005451   0.000084   0.006183  -0.041415   0.403060
    12  C    0.000000  -0.000026   0.000919  -0.000600   0.000016   0.000000
    13  C   -0.000000   0.000000  -0.000020  -0.000007   0.000002  -0.000000
    14  C   -0.000000   0.000000   0.000032   0.000046  -0.000011  -0.000000
    15  C    0.000002   0.000016  -0.000957   0.021951  -0.000878  -0.000011
    16  C   -0.000007  -0.000600  -0.019073  -0.154198   0.021951   0.000046
    17  C   -0.000020   0.000919  -0.004166  -0.019073  -0.000957   0.000032
    18  H    0.000000  -0.000002   0.000019   0.000016  -0.000001   0.000000
    19  H    0.000000  -0.000000  -0.000000   0.000001   0.000000  -0.000000
    20  H   -0.000000   0.000000   0.000001  -0.000004  -0.000000   0.000000
    21  H    0.000001   0.000001  -0.000165   0.003403  -0.000110  -0.000005
    22  H   -0.000041   0.001995  -0.002917  -0.002477   0.000012   0.000014
    23  C   -0.000309   0.003213  -0.027939   0.291555  -0.051729   0.010680
    24  O   -0.000014  -0.000077   0.002981  -0.149787   0.016221   0.002335
               7          8          9         10         11         12
     1  C    0.401405  -0.040892   0.005904   0.005472  -0.042624   0.000000
     2  C   -0.041276   0.403392  -0.040675  -0.000658   0.005451  -0.000026
     3  C    0.006429  -0.040722   0.378071   0.005943   0.000084   0.000919
     4  C   -0.000486   0.005119  -0.041854  -0.046307   0.006183  -0.000600
     5  C    0.005923  -0.000055   0.004674   0.391866  -0.041415   0.000016
     6  C   -0.042183   0.005741  -0.000284  -0.038604   0.403060   0.000000
     7  H    0.473894  -0.005805  -0.000368  -0.000220  -0.005916  -0.000000
     8  H   -0.005805   0.476803  -0.006308   0.000067  -0.000347  -0.000002
     9  H   -0.000368  -0.006308   0.470729  -0.000202   0.000088   0.001995
    10  H   -0.000220   0.000067  -0.000202   0.435901  -0.005850   0.000001
    11  H   -0.005916  -0.000347   0.000088  -0.005850   0.472710   0.000000
    12  C   -0.000000  -0.000002   0.001995   0.000001   0.000000   4.904106
    13  C    0.000000   0.000000  -0.000041   0.000001  -0.000000   0.540353
    14  C   -0.000000   0.000000   0.000014  -0.000005   0.000000  -0.048084
    15  C    0.000000  -0.000001   0.000012  -0.000110  -0.000000  -0.036137
    16  C    0.000001   0.000016  -0.002477   0.003403  -0.000004  -0.025119
    17  C   -0.000000   0.000019  -0.002917  -0.000165   0.000001   0.544514
    18  H   -0.000000  -0.000000  -0.000046  -0.000000   0.000000   0.403392
    19  H   -0.000000  -0.000000   0.000002   0.000000   0.000000  -0.041276
    20  H    0.000000   0.000000  -0.000001  -0.000000  -0.000000   0.005451
    21  H    0.000000  -0.000000  -0.000014  -0.000041  -0.000000  -0.000658
    22  H    0.000002  -0.000046   0.011670  -0.000014  -0.000001  -0.040675
    23  C    0.000032  -0.000167  -0.002804  -0.015314  -0.000413   0.003213
    24  O    0.000000   0.000004  -0.000027   0.028714  -0.000069  -0.000077
              13         14         15         16         17         18
     1  C   -0.000000  -0.000000   0.000002  -0.000007  -0.000020   0.000000
     2  C    0.000000   0.000000   0.000016  -0.000600   0.000919  -0.000002
     3  C   -0.000020   0.000032  -0.000957  -0.019073  -0.004166   0.000019
     4  C   -0.000007   0.000046   0.021951  -0.154198  -0.019073   0.000016
     5  C    0.000002  -0.000011  -0.000878   0.021951  -0.000957  -0.000001
     6  C   -0.000000  -0.000000  -0.000011   0.000046   0.000032   0.000000
     7  H    0.000000  -0.000000   0.000000   0.000001  -0.000000  -0.000000
     8  H    0.000000   0.000000  -0.000001   0.000016   0.000019  -0.000000
     9  H   -0.000041   0.000014   0.000012  -0.002477  -0.002917  -0.000046
    10  H    0.000001  -0.000005  -0.000110   0.003403  -0.000165  -0.000000
    11  H   -0.000000   0.000000  -0.000000  -0.000004   0.000001   0.000000
    12  C    0.540353  -0.048084  -0.036137  -0.025119   0.544514   0.403392
    13  C    4.926791   0.519230  -0.045077  -0.036869  -0.050441  -0.040892
    14  C    0.519230   4.964853   0.510230  -0.043549  -0.044433   0.005741
    15  C   -0.045077   0.510230   5.026400   0.450321  -0.088680  -0.000055
    16  C   -0.036869  -0.043549   0.450321   5.342423   0.526603   0.005119
    17  C   -0.050441  -0.044433  -0.088680   0.526603   4.992682  -0.040722
    18  H   -0.040892   0.005741  -0.000055   0.005119  -0.040722   0.476803
    19  H    0.401405  -0.042183   0.005923  -0.000486   0.006429  -0.005805
    20  H   -0.042624   0.403060  -0.041415   0.006183   0.000084  -0.000347
    21  H    0.005472  -0.038604   0.391866  -0.046307   0.005943   0.000067
    22  H    0.005904  -0.000284   0.004674  -0.041854   0.378071  -0.006308
    23  C   -0.000309   0.010680  -0.051729   0.291555  -0.027939  -0.000167
    24  O   -0.000014   0.002335   0.016221  -0.149787   0.002981   0.000004
              19         20         21         22         23         24
     1  C    0.000000  -0.000000   0.000001  -0.000041  -0.000309  -0.000014
     2  C   -0.000000   0.000000   0.000001   0.001995   0.003213  -0.000077
     3  C   -0.000000   0.000001  -0.000165  -0.002917  -0.027939   0.002981
     4  C    0.000001  -0.000004   0.003403  -0.002477   0.291555  -0.149787
     5  C    0.000000  -0.000000  -0.000110   0.000012  -0.051729   0.016221
     6  C   -0.000000   0.000000  -0.000005   0.000014   0.010680   0.002335
     7  H   -0.000000   0.000000   0.000000   0.000002   0.000032   0.000000
     8  H   -0.000000   0.000000  -0.000000  -0.000046  -0.000167   0.000004
     9  H    0.000002  -0.000001  -0.000014   0.011670  -0.002804  -0.000027
    10  H    0.000000  -0.000000  -0.000041  -0.000014  -0.015314   0.028714
    11  H    0.000000  -0.000000  -0.000000  -0.000001  -0.000413  -0.000069
    12  C   -0.041276   0.005451  -0.000658  -0.040675   0.003213  -0.000077
    13  C    0.401405  -0.042624   0.005472   0.005904  -0.000309  -0.000014
    14  C   -0.042183   0.403060  -0.038604  -0.000284   0.010680   0.002335
    15  C    0.005923  -0.041415   0.391866   0.004674  -0.051729   0.016221
    16  C   -0.000486   0.006183  -0.046307  -0.041854   0.291555  -0.149787
    17  C    0.006429   0.000084   0.005943   0.378071  -0.027939   0.002981
    18  H   -0.005805  -0.000347   0.000067  -0.006308  -0.000167   0.000004
    19  H    0.473894  -0.005916  -0.000220  -0.000368   0.000032   0.000000
    20  H   -0.005916   0.472710  -0.005850   0.000088  -0.000413  -0.000069
    21  H   -0.000220  -0.005850   0.435901  -0.000202  -0.015314   0.028714
    22  H   -0.000368   0.000088  -0.000202   0.470729  -0.002804  -0.000027
    23  C    0.000032  -0.000413  -0.015314  -0.002804   4.596275   0.732781
    24  O    0.000000  -0.000069   0.028714  -0.000027   0.732781   7.763858
 Mulliken charges:
               1
     1  C   -0.182864
     2  C   -0.211308
     3  C   -0.178763
     4  C   -0.127291
     5  C   -0.162566
     6  C   -0.199069
     7  H    0.208567
     8  H    0.203183
     9  H    0.224858
    10  H    0.236124
    11  H    0.209062
    12  C   -0.211308
    13  C   -0.182864
    14  C   -0.199069
    15  C   -0.162566
    16  C   -0.127291
    17  C   -0.178763
    18  H    0.203183
    19  H    0.208567
    20  H    0.209062
    21  H    0.236124
    22  H    0.224858
    23  C    0.257334
    24  O   -0.297200
 Sum of Mulliken charges =   0.00000
 Mulliken charges with hydrogens summed into heavy atoms:
               1
     1  C    0.025703
     2  C   -0.008125
     3  C    0.046095
     4  C   -0.127291
     5  C    0.073558
     6  C    0.009993
    12  C   -0.008125
    13  C    0.025703
    14  C    0.009993
    15  C    0.073558
    16  C   -0.127291
    17  C    0.046095
    23  C    0.257334
    24  O   -0.297200
 Electronic spatial extent (au):  <R**2>=           3256.3355
 Charge=             -0.0000 electrons
 Dipole moment (field-independent basis, Debye):
    X=             -0.0000    Y=             -2.6528    Z=             -0.0016  Tot=              2.6528
 Quadrupole moment (field-independent basis, Debye-Ang):
   XX=            -64.3296   YY=            -77.9203   ZZ=            -87.0704
   XY=             -0.0000   XZ=             -0.0001   YZ=             -0.0066
 Traceless Quadrupole moment (field-independent basis, Debye-Ang):
   XX=             12.1105   YY=             -1.4802   ZZ=            -10.6303
   XY=             -0.0000   XZ=             -0.0001   YZ=             -0.0066
 Octapole moment (field-independent basis, Debye-Ang**2):
  XXX=             -0.0000  YYY=            -15.8625  ZZZ=              0.0073  XYY=             -0.0000
  XXY=              1.6821  XXZ=             -0.0306  XZZ=              0.0000  YZZ=              6.0602
  YYZ=             -0.0082  XYZ=             -0.0009
 Hexadecapole moment (field-independent basis, Debye-Ang**3):
 XXXX=          -3160.0345 YYYY=           -767.8379 ZZZZ=            -96.4069 XXXY=              0.0000
 XXXZ=             -0.0022 YYYX=             -0.0000 YYYZ=             -0.0335 ZZZX=             -0.0001
 ZZZY=              0.0116 XXYY=           -655.4959 XXZZ=           -698.9100 YYZZ=           -158.3223
 XXYZ=             -0.0204 YYXZ=              0.0003 ZZXY=              0.0000
 N-N= 7.707831296189D+02 E-N=-2.882962977482D+03  KE= 5.746332378148D+02
 No NMR shielding tensors so no spin-rotation constants.
 Leave Link  601 at Mon Jun  3 14:33:01 2024, MaxMem=  2684354560 cpu:               2.3 elap:               0.1
 (Enter /home/software/gaussian/gdv/j19p/gdv/l701.exe)
 ... and contract with generalized density number  0.
 Compute integral first derivatives.
 Leave Link  701 at Mon Jun  3 14:33:01 2024, MaxMem=  2684354560 cpu:               2.2 elap:               0.2
 (Enter /home/software/gaussian/gdv/j19p/gdv/l702.exe)
 L702 exits ... SP integral derivatives will be done elsewhere.
 Leave Link  702 at Mon Jun  3 14:33:01 2024, MaxMem=  2684354560 cpu:               0.1 elap:               0.0
 (Enter /home/software/gaussian/gdv/j19p/gdv/l703.exe)
 Integral derivatives from FoFJK, PRISM(SPDF).
 Compute integral first derivatives, UseDBF=F ICtDFT=           0.
 Calling FoFJK, ICntrl=      2127 FMM=F ISym2X=0 I1Cent= 0 IOpClX= 0 NMat=1 NMatS=1 NMatT=0.
 FoFJK:  IHMeth= 1 ICntrl=    2127 DoSepK=T KAlg= 0 I1Cent=           0 FoldK=F
 IRaf=         1 NMat=       1 IRICut=       1 DoRegI=T DoRafI=F ISym2E= 0 IDoP0=0 IntGTp=1.
 FoFCou: FMM=F IPFlag=           0 FMFlag=      100000 FMFlg1=         800
         NFxFlg=           0 DoJE=F BraDBF=F KetDBF=F FulRan=T
         wScrn=  0.000000 ICntrl=      2527 IOpCl=  0 I1Cent=           0 NGrid=           0
         NMat0=    1 NMatS0=      1 NMatT0=    0 NMatD0=    1 NMtDS0=    0 NMtDT0=    0
 Symmetry not used in FoFCou.
 Leave Link  703 at Mon Jun  3 14:33:04 2024, MaxMem=  2684354560 cpu:              81.5 elap:               3.4
 (Enter /home/software/gaussian/gdv/j19p/gdv/l716.exe)
 Dipole        =-7.48317645D-08-1.04369312D+00-6.13167878D-04
 ***** Axes restored to original set *****
 -------------------------------------------------------------------
 Center     Atomic                   Forces (Hartrees/Bohr)
 Number     Number              X              Y              Z
 -------------------------------------------------------------------
      1        6          -0.000034911    0.000111627   -0.000010640
      2        6           0.000074643   -0.000021783    0.000013376
      3        6           0.000043635   -0.000080875    0.000010177
      4        6          -0.000033383    0.000068728    0.000007277
      5        6           0.000131336    0.000024320    0.000014103
      6        6          -0.000106262   -0.000128983   -0.000009151
      7        1           0.000000778    0.000009539   -0.000000771
      8        1          -0.000013310    0.000021901   -0.000003759
      9        1          -0.000103449    0.000054119   -0.000022988
     10        1          -0.000016183   -0.000033762   -0.000002968
     11        1          -0.000010835   -0.000022865    0.000000275
     12        6          -0.000075903   -0.000019703   -0.000008841
     13        6           0.000039516    0.000110597    0.000000300
     14        6           0.000100869   -0.000131848    0.000021311
     15        6          -0.000129139    0.000027920   -0.000024239
     16        6           0.000031755    0.000067790    0.000016766
     17        6          -0.000046871   -0.000079599   -0.000003487
     18        1           0.000014415    0.000021518    0.000000328
     19        1          -0.000000265    0.000009554   -0.000000918
     20        1           0.000009676   -0.000023149    0.000003275
     21        1           0.000015428   -0.000034197    0.000001690
     22        1           0.000106966    0.000051272    0.000009149
     23        6           0.000000251   -0.000068050   -0.000008124
     24        8           0.000001241    0.000065931   -0.000002140
 -------------------------------------------------------------------
 Cartesian Forces:  Max     0.000131848 RMS     0.000053230
 Leave Link  716 at Mon Jun  3 14:33:04 2024, MaxMem=  2684354560 cpu:               0.2 elap:               0.1
 (Enter /home/software/gaussian/gdv/j19p/gdv/l103.exe)

 GradGradGradGradGradGradGradGradGradGradGradGradGradGradGradGradGradGrad
 Berny optimization.
 FormGI is forming the generalized inverse of G from B-inverse, IUseBI=4.
 Internal  Forces:  Max     0.000120908 RMS     0.000028621
 Search for a local minimum.
 Step number   1 out of a maximum of  138
 All quantities printed in internal units (Hartrees-Bohrs-Radians)
 RMS Force = .28621D-04 SwitMx=.10000D-02 MixMth= 2
 Mixed Optimization -- En-DIIS/RFO-DIIS
 Second derivative matrix not updated -- first step.
 ITU=  0
     Eigenvalues ---   -0.00158  -0.00142   0.00797   0.00906   0.01730
     Eigenvalues ---    0.01749   0.01862   0.01869   0.01946   0.02172
     Eigenvalues ---    0.02293   0.02295   0.02333   0.02466   0.02551
     Eigenvalues ---    0.02593   0.02609   0.02617   0.02809   0.02816
     Eigenvalues ---    0.02918   0.02920   0.04609   0.10587   0.11158
     Eigenvalues ---    0.11232   0.11723   0.11907   0.12558   0.12567
     Eigenvalues ---    0.12638   0.12735   0.16267   0.18336   0.18981
     Eigenvalues ---    0.19329   0.19547   0.19933   0.19965   0.20717
     Eigenvalues ---    0.22145   0.26158   0.26795   0.30369   0.35827
     Eigenvalues ---    0.36068   0.36073   0.36178   0.36321   0.36325
     Eigenvalues ---    0.36440   0.36488   0.36961   0.37598   0.38734
     Eigenvalues ---    0.42016   0.42479   0.44709   0.47369   0.48250
     Eigenvalues ---    0.48584   0.48789   0.51656   0.52747   0.54166
     Eigenvalues ---    0.83848
 Eigenvalue     1 is  -1.58D-03 should be greater than     0.000000 Eigenvector:
                          D31       D60       D17       D61       D18
   1                    0.66893  -0.34759  -0.34759  -0.33724  -0.33724
                          D58       D59       D24       D23       D56
   1                    0.10922   0.10922   0.10922   0.10922   0.08106
 Eigenvalue     2 is  -1.42D-03 should be greater than     0.000000 Eigenvector:
                          D23       D58       D25       D56       D24
   1                   -0.35977   0.35977  -0.33803   0.33803  -0.28948
                          D59       D26       D57       D18       D61
   1                    0.28948  -0.26774   0.26774   0.23126  -0.23126
 RFO step:  Lambda=-1.57749370D-03 EMin=-1.57749072D-03
 I=     1 Eig=   -1.58D-03 Dot1= -3.44D-08
 I=     1 Stepn= -1.49D-01 RXN=   1.49D-01 DoEMax=T EDone=F
 I=     2 Eig=   -1.42D-03 Dot1=  1.36D-07
 I=     2 Stepn=  1.39D-01 RXN=   2.04D-01 DoEMax=T EDone=F
 Mixed    2 eigenvectors in step.  Raw Step.Grad=  4.30D-07.
 RFO eigenvector is Hessian eigenvector with negative curvature.
 Taking step of  2.04D-01 in eigenvector direction(s).  Step.Grad= -1.09D-09 DoEMax=T.
 Linear search not attempted -- first point.
 Iteration  1 RMS(Cart)=  0.03210337 RMS(Int)=  0.00038265
 Iteration  2 RMS(Cart)=  0.00064396 RMS(Int)=  0.00016304
 Iteration  3 RMS(Cart)=  0.00000029 RMS(Int)=  0.00016304
 Variable       Old X    -DE/DX   Delta X   Delta X   Delta X     New X
                                 (Linear)    (Quad)   (Total)
    R1        2.61661   0.00003   0.00000   0.00000   0.00004   2.61666
    R2        2.62380  -0.00012   0.00000  -0.00000   0.00009   2.62390
    R3        2.04926  -0.00000   0.00000  -0.00000  -0.00000   2.04926
    R4        2.62357  -0.00002   0.00000   0.00000  -0.00005   2.62352
    R5        2.04893  -0.00002   0.00000   0.00000   0.00000   2.04893
    R6        2.63711   0.00003   0.00000  -0.00000  -0.00022   2.63689
    R7        2.03280  -0.00009   0.00000   0.00000  -0.00011   2.03269
    R8        2.64626  -0.00003   0.00000  -0.00000  -0.00004   2.64622
    R9        2.86380   0.00003   0.00000  -0.00000  -0.00004   2.86376
   R10        2.61183   0.00012   0.00000   0.00000   0.00005   2.61188
   R11        2.04323  -0.00004   0.00000   0.00000   0.00000   2.04323
   R12        2.04888  -0.00001   0.00000  -0.00000  -0.00000   2.04888
   R13        3.20946   0.00003   0.00000   0.00004   0.00001   3.20947
   R14        2.61661   0.00003   0.00000   0.00000   0.00002   2.61663
   R15        2.62357  -0.00002   0.00000  -0.00000  -0.00002   2.62355
   R16        2.04893  -0.00002   0.00000  -0.00000  -0.00000   2.04893
   R17        2.62380  -0.00012   0.00000   0.00000   0.00004   2.62384
   R18        2.04926  -0.00000   0.00000  -0.00000  -0.00000   2.04926
   R19        2.61183   0.00012   0.00000   0.00000   0.00002   2.61185
   R20        2.04888  -0.00001   0.00000  -0.00000  -0.00000   2.04888
   R21        2.64626  -0.00003   0.00000  -0.00000  -0.00002   2.64624
   R22        2.04323  -0.00004   0.00000   0.00000   0.00000   2.04323
   R23        2.63711   0.00003   0.00000  -0.00000   0.00009   2.63720
   R24        2.86380   0.00003   0.00000  -0.00000   0.00008   2.86388
   R25        2.03280  -0.00009   0.00000   0.00000   0.00007   2.03287
   R26        2.29451   0.00007   0.00000  -0.00000  -0.00000   2.29451
    A1        2.08235  -0.00001   0.00000   0.00000   0.00002   2.08236
    A2        2.09918   0.00001   0.00000  -0.00000  -0.00001   2.09918
    A3        2.10165  -0.00000   0.00000  -0.00000  -0.00001   2.10165
    A4        2.10337   0.00002   0.00000   0.00000  -0.00013   2.10324
    A5        2.09746  -0.00003   0.00000  -0.00000   0.00007   2.09753
    A6        2.08235   0.00001   0.00000   0.00000   0.00007   2.08242
    A7        2.11224   0.00001   0.00000  -0.00000   0.00013   2.11237
    A8        2.04267  -0.00002   0.00000   0.00000   0.00054   2.04320
    A9        2.12828   0.00001   0.00000   0.00000  -0.00067   2.12761
   A10        2.05131  -0.00003   0.00000   0.00000   0.00008   2.05139
   A11        2.23268  -0.00002   0.00000  -0.00000  -0.00058   2.23210
   A12        1.99920   0.00005   0.00000  -0.00000   0.00048   1.99967
   A13        2.12152   0.00000   0.00000  -0.00000  -0.00012   2.12141
   A14        2.05785   0.00001   0.00000   0.00000   0.00006   2.05791
   A15        2.10381  -0.00001   0.00000  -0.00000   0.00006   2.10387
   A16        2.09558   0.00001   0.00000  -0.00000   0.00002   2.09560
   A17        2.09881  -0.00003   0.00000   0.00000  -0.00001   2.09880
   A18        2.08879   0.00002   0.00000   0.00000  -0.00001   2.08878
   A19        2.38524   0.00001   0.00000  -0.00004  -0.00108   2.38416
   A20        2.10337   0.00002   0.00000  -0.00000  -0.00004   2.10333
   A21        2.09746  -0.00003   0.00000  -0.00000   0.00002   2.09748
   A22        2.08235   0.00001   0.00000   0.00000   0.00002   2.08238
   A23        2.08235  -0.00001   0.00000   0.00000   0.00002   2.08237
   A24        2.09918   0.00001   0.00000  -0.00000  -0.00001   2.09917
   A25        2.10165  -0.00000   0.00000  -0.00000  -0.00001   2.10164
   A26        2.09558   0.00001   0.00000  -0.00000   0.00002   2.09560
   A27        2.09881  -0.00003   0.00000  -0.00000  -0.00001   2.09880
   A28        2.08879   0.00002   0.00000   0.00000  -0.00001   2.08878
   A29        2.12152   0.00000   0.00000  -0.00000  -0.00004   2.12148
   A30        2.10381  -0.00001   0.00000   0.00000   0.00002   2.10383
   A31        2.05785   0.00001   0.00000   0.00000   0.00002   2.05787
   A32        2.05131  -0.00003   0.00000   0.00000   0.00002   2.05133
   A33        1.99920   0.00005   0.00000   0.00000   0.00018   1.99938
   A34        2.23268  -0.00002   0.00000  -0.00001  -0.00020   2.23247
   A35        2.11224   0.00001   0.00000  -0.00000   0.00002   2.11226
   A36        2.04267  -0.00002   0.00000   0.00001   0.00018   2.04285
   A37        2.12828   0.00001   0.00000  -0.00000  -0.00021   2.12807
   A38        2.38524   0.00001   0.00000   0.00001  -0.00061   2.38463
   A39        2.21558  -0.00001   0.00000  -0.00001  -0.00047   2.21511
   A40        2.03380   0.00001   0.00000   0.00000   0.00021   2.03402
   A41        2.03380   0.00001   0.00000   0.00001   0.00022   2.03402
    D1       -0.00001   0.00000   0.00000   0.00138   0.00138   0.00137
    D2        3.14155   0.00000   0.00000   0.00093   0.00093  -3.14071
    D3       -3.14157  -0.00000   0.00000   0.00116   0.00116  -3.14041
    D4       -0.00001   0.00000   0.00000   0.00071   0.00071   0.00069
    D5        0.00003  -0.00000   0.00000   0.00095   0.00095   0.00098
    D6       -3.14156  -0.00000   0.00000   0.00002   0.00002  -3.14154
    D7        3.14159   0.00000   0.00000   0.00117   0.00117  -3.14042
    D8       -0.00000   0.00000   0.00000   0.00024   0.00024   0.00024
    D9       -0.00005   0.00000   0.00000  -0.00221  -0.00221  -0.00226
   D10        3.14153   0.00000   0.00000  -0.00093  -0.00093   3.14060
   D11        3.14158  -0.00000   0.00000  -0.00176  -0.00176   3.13982
   D12       -0.00003   0.00000   0.00000  -0.00048  -0.00048  -0.00051
   D13        0.00009  -0.00000   0.00000   0.00067   0.00067   0.00076
   D14       -3.14159   0.00000   0.00000   0.00809   0.00808  -3.13351
   D15       -3.14149  -0.00000   0.00000  -0.00068  -0.00067   3.14102
   D16        0.00002   0.00000   0.00000   0.00674   0.00674   0.00675
   D17       -3.14111   0.00000   0.00000   0.08126   0.08124  -3.05987
   D18        0.00047   0.00000   0.00000   0.08255   0.08253   0.08300
   D19       -0.00007   0.00000   0.00000   0.00169   0.00169   0.00162
   D20        3.14152   0.00000   0.00000   0.00317   0.00317  -3.13849
   D21       -3.14159  -0.00000   0.00000  -0.00474  -0.00474   3.13686
   D22        0.00001  -0.00000   0.00000  -0.00326  -0.00326  -0.00325
   D23       -0.00065  -0.00000   0.00000  -0.06633  -0.06632  -0.06696
   D24        3.14103  -0.00000   0.00000  -0.05656  -0.05656   3.08448
   D25        3.14086   0.00000   0.00000  -0.05910  -0.05909   3.08177
   D26       -0.00064   0.00000   0.00000  -0.04933  -0.04933  -0.04998
   D27        0.00001  -0.00000   0.00000  -0.00252  -0.00252  -0.00251
   D28       -3.14158  -0.00000   0.00000  -0.00160  -0.00160   3.14001
   D29       -3.14158  -0.00000   0.00000  -0.00405  -0.00404   3.13756
   D30        0.00001  -0.00000   0.00000  -0.00312  -0.00312  -0.00311
   D31       -0.00015  -0.00000   0.00000  -0.10000  -0.09999  -0.10013
   D32        0.00001  -0.00000   0.00000  -0.00134  -0.00134  -0.00133
   D33        3.14157   0.00000   0.00000  -0.00083  -0.00083   3.14074
   D34       -3.14155  -0.00000   0.00000  -0.00167  -0.00167   3.13997
   D35        0.00001  -0.00000   0.00000  -0.00116  -0.00116  -0.00114
   D36        0.00005  -0.00000   0.00000   0.00093   0.00093   0.00098
   D37       -3.14153  -0.00000   0.00000  -0.00341  -0.00341   3.13824
   D38       -3.14158   0.00000   0.00000   0.00126   0.00126  -3.14032
   D39        0.00003  -0.00000   0.00000  -0.00309  -0.00309  -0.00306
   D40       -0.00003   0.00000   0.00000   0.00042   0.00042   0.00039
   D41        3.14156   0.00000   0.00000   0.00038   0.00038  -3.14124
   D42       -3.14159  -0.00000   0.00000  -0.00010  -0.00010   3.14150
   D43        0.00000  -0.00000   0.00000  -0.00013  -0.00013  -0.00013
   D44       -0.00002   0.00000   0.00000   0.00094   0.00094   0.00093
   D45        3.14158   0.00000   0.00000   0.00085   0.00085  -3.14076
   D46        3.14158   0.00000   0.00000   0.00098   0.00098  -3.14062
   D47       -0.00001   0.00000   0.00000   0.00089   0.00089   0.00088
   D48        0.00007  -0.00000   0.00000  -0.00134  -0.00134  -0.00126
   D49        3.14158   0.00000   0.00000  -0.00239  -0.00239   3.13919
   D50       -3.14152  -0.00000   0.00000  -0.00125  -0.00125   3.14042
   D51       -0.00001   0.00000   0.00000  -0.00230  -0.00230  -0.00232
   D52       -0.00009   0.00000   0.00000   0.00040   0.00040   0.00031
   D53        3.14149   0.00000   0.00000   0.00496   0.00496  -3.13674
   D54       -3.14158  -0.00000   0.00000   0.00162   0.00162  -3.13997
   D55       -0.00000  -0.00000   0.00000   0.00618   0.00617   0.00617
   D56       -3.14090  -0.00000   0.00000   0.03486   0.03485  -3.10604
   D57        0.00061  -0.00000   0.00000   0.02509   0.02509   0.02570
   D58        0.00060   0.00000   0.00000   0.03367   0.03367   0.03427
   D59       -3.14108   0.00000   0.00000   0.02390   0.02390  -3.11718
   D60        3.14126  -0.00000   0.00000   0.02266   0.02266  -3.11926
   D61       -0.00032  -0.00000   0.00000   0.01827   0.01827   0.01796
         Item               Value     Threshold  Converged?
 Maximum Force            0.000121     0.000450     YES
 RMS     Force            0.000029     0.000300     YES
 Maximum Displacement     0.162840     0.001800     NO 
 RMS     Displacement     0.032110     0.001200     NO 
 Predicted change in Energy=-3.179026D-05
 Lowest energy point so far.  Saving SCF results.
 GradGradGradGradGradGradGradGradGradGradGradGradGradGradGradGradGradGrad

 Leave Link  103 at Mon Jun  3 14:33:04 2024, MaxMem=  2684354560 cpu:               0.5 elap:               0.0
 (Enter /home/software/gaussian/gdv/j19p/gdv/l202.exe)
                          Input orientation:                          
 ---------------------------------------------------------------------
 Center     Atomic      Atomic             Coordinates (Angstroms)
 Number     Number       Type             X           Y           Z
 ---------------------------------------------------------------------
      1          6           0       -2.195345   -2.130285   -0.040380
      2          6           0       -1.156755   -3.032663    0.115725
      3          6           0        0.149300   -2.585457    0.262753
      4          6           0        0.448138   -1.222475    0.254403
      5          6           0       -0.616564   -0.327252    0.093533
      6          6           0       -1.918034   -0.769789   -0.050256
      7          1           0       -3.214253   -2.483732   -0.153828
      8          1           0       -1.357189   -4.098187    0.124673
      9          1           0        0.912587   -3.334064    0.381099
     10          1           0       -0.391479    0.730238    0.083230
     11          1           0       -2.719572   -0.049802   -0.171442
     12          6           0        4.651472   -3.111156    1.011151
     13          6           0        5.720111   -2.239114    1.132984
     14          6           0        5.500229   -0.873486    1.012220
     15          6           0        4.225468   -0.395764    0.773346
     16          6           0        3.130617   -1.259821    0.648319
     17          6           0        3.371745   -2.628775    0.772316
     18          1           0        4.807444   -4.180318    1.101487
     19          1           0        6.717984   -2.620067    1.320318
     20          1           0        6.325982   -0.176977    1.104624
     21          1           0        4.045704    0.666073    0.677212
     22          1           0        2.583547   -3.355567    0.684287
     23          6           0        1.807540   -0.566866    0.391362
     24          8           0        1.838618    0.643056    0.294339
 ---------------------------------------------------------------------
                    Distance matrix (angstroms):
                    1          2          3          4          5
     1  C    0.000000
     2  C    1.384674   0.000000
     3  C    2.407578   1.388305   0.000000
     4  C    2.810519   2.423158   1.395383   0.000000
     5  C    2.400293   2.758903   2.390538   1.400319   0.000000
     6  C    1.388506   2.393260   2.769205   2.428273   1.382150
     7  H    1.084421   2.146458   3.390778   3.894936   3.385200
     8  H    2.145317   1.084248   2.139375   3.397904   3.843103
     9  H    3.359460   2.107948   1.075651   2.165773   3.385545
    10  H    3.384051   3.840069   3.364298   2.132450   1.081228
    11  H    2.149511   3.379692   3.853375   3.404540   2.137716
    12  C    6.996193   5.877367   4.594127   4.669882   6.028627
    13  C    8.002691   6.996844   5.648999   5.440510   6.699934
    14  C    7.868251   7.055579   5.667891   5.120518   6.209470
    15  C    6.700563   6.029430   4.655170   3.901407   4.890002
    16  C    5.440393   4.669923   3.285456   2.711504   3.901132
    17  C    5.648137   4.593642   3.262772   3.285329   4.654499
    18  H    7.385495   6.153089   4.994532   5.335722   6.729186
    19  H    9.029884   7.977017   6.653363   6.511559   7.781876
    20  H    8.816998   8.069958   6.682882   6.030339   7.017395
    21  H    6.876426   6.407924   5.091776   4.085077   4.802511
    22  H    4.986408   3.797024   2.587724   3.048746   4.445266
    23  C    4.319001   3.865641   2.615533   1.515439   2.454058
    24  O    4.906762   4.745005   3.643911   2.327065   2.647591
                    6          7          8          9         10
     6  C    0.000000
     7  H    2.151397   0.000000
     8  H    3.379849   2.476432   0.000000
     9  H    3.843695   4.247355   2.408635   0.000000
    10  H    2.144357   4.284139   4.924225   4.278769   0.000000
    11  H    1.084218   2.483754   4.281727   4.927906   2.468469
    12  C    7.054572   7.976243   6.153379   3.798145   6.406925
    13  C    7.867670   9.029871   7.386543   4.987638   6.875359
    14  C    7.494680   8.938387   7.629588   5.243970   6.176340
    15  C    6.209737   7.782590   6.730139   4.445519   4.802118
    16  C    5.120255   6.511434   5.335815   3.048532   4.084705
    17  C    5.666940   6.652379   4.994139   2.588038   5.091135
    18  H    7.628255   8.294687   6.242084   4.050310   7.223517
    19  H    8.937718  10.041963   8.295952   5.924065   7.956091
    20  H    8.345596   9.895499   8.681434   6.308369   6.854966
    21  H    6.177141   7.957315   7.224591   5.089715   4.477222
    22  H    5.243093   5.922585   4.048957   1.698379   5.089778
    23  C    3.757141   5.402778   4.749406   2.908338   2.571597
    24  O    4.028313   5.958956   5.720258   4.084427   2.241762
                   11         12         13         14         15
    11  H    0.000000
    12  C    8.068624   0.000000
    13  C    8.816057   1.384663   0.000000
    14  C    8.345336   2.393232   1.388479   0.000000
    15  C    7.017542   2.758874   2.400257   1.382134   0.000000
    16  C    6.029996   2.423240   2.810586   2.428321   1.400330
    17  C    6.681760   1.388321   2.407642   2.769304   2.390645
    18  H    8.679716   1.084248   2.145280   3.379802   3.843074
    19  H    9.894395   2.146445   1.084421   2.151370   3.385164
    20  H    9.136003   3.379664   2.149486   1.084218   2.137702
    21  H    6.855774   3.840043   3.384003   2.144322   1.081228
    22  H    6.307409   2.107816   3.359439   3.843866   3.385892
    23  C    4.591170   3.865940   4.319100   3.757051   2.453887
    24  O    4.634015   4.745532   4.906752   4.027735   2.646819
                   16         17         18         19         20
    16  C    0.000000
    17  C    1.395548   0.000000
    18  H    3.398001   2.139362   0.000000
    19  H    3.895004   3.390825   2.476375   0.000000
    20  H    3.404574   3.853474   4.281670   2.483722   0.000000
    21  H    2.132436   3.364415   4.924201   4.284084   2.468417
    22  H    2.166271   1.075747   2.408316   4.247242   4.928076
    23  C    1.515501   2.615976   4.749814   5.402874   4.590977
    24  O    2.327123   3.644698   5.721045   5.958927   4.633082
                   21         22         23         24
    21  H    0.000000
    22  H    4.279198   0.000000
    23  C    2.571230   2.909440   0.000000
    24  O    2.240167   4.086069   1.214204   0.000000
 Stoichiometry    C13H10O
 Framework group  C1[X(C13H10O)]
 Deg. of freedom    66
 Full point group                 C1      NOp   1
 RotChk:  IX=3 Diff= 1.25D-02
 Largest Abelian subgroup         C1      NOp   1
 Largest concise Abelian subgroup C1      NOp   1
                         Standard orientation:                         
 ---------------------------------------------------------------------
 Center     Atomic      Atomic             Coordinates (Angstroms)
 Number     Number       Type             X           Y           Z
 ---------------------------------------------------------------------
      1          6           0        4.001380   -0.722909   -0.024694
      2          6           0        2.938929   -1.609489    0.025281
      3          6           0        1.631605   -1.142576    0.042204
      4          6           0        1.355774    0.224943    0.012169
      5          6           0        2.444653    1.104074   -0.036448
      6          6           0        3.747033    0.641738   -0.056187
      7          1           0        5.021033   -1.091794   -0.038864
      8          1           0        3.121382   -2.677962    0.051170
      9          1           0        0.849090   -1.879619    0.080465
     10          1           0        2.237902    2.165153   -0.056953
     11          1           0        4.567411    1.349529   -0.095463
     12          6           0       -2.938304   -1.610264   -0.014440
     13          6           0       -4.001307   -0.723138   -0.032370
     14          6           0       -3.747589    0.641951   -0.026551
     15          6           0       -2.445238    1.104170   -0.003539
     16          6           0       -1.355730    0.224615    0.013277
     17          6           0       -1.630983   -1.143507    0.007536
     18          1           0       -3.120328   -2.679121   -0.017176
     19          1           0       -5.020923   -1.091962   -0.050306
     20          1           0       -4.568424    1.350172   -0.040045
     21          1           0       -2.238933    2.165519    0.001920
     22          1           0       -0.848348   -1.881371    0.023950
     23          6           0       -0.000017    0.901625    0.034291
     24          8           0       -0.000137    2.115507    0.062266
 ---------------------------------------------------------------------
 Rotational constants (GHZ):           1.9067981           0.3874862           0.3221340
 Leave Link  202 at Mon Jun  3 14:33:04 2024, MaxMem=  2684354560 cpu:               0.2 elap:               0.0
 (Enter /home/software/gaussian/gdv/j19p/gdv/l301.exe)
 Standard basis: 6-311G(d) (5D, 7F)
 Ernie: Thresh=  0.10000D-02 Tol=  0.10000D-05 Strict=F.
 There are   296 symmetry adapted cartesian basis functions of A   symmetry.
 There are   282 symmetry adapted basis functions of A   symmetry.
   282 basis functions,   498 primitive gaussians,   296 cartesian basis functions
    48 alpha electrons       48 beta electrons
       nuclear repulsion energy       770.7925675316 Hartrees.
 IExCor=   2004019 DFT=T Ex+Corr=CAM-B3LYP ScaHFX=  1.000000
 ScaDFX=  1.000000  1.000000  1.000000  0.810000  1.000000  0.000000
 ScaDFX=  0.000000  0.000000  0.000000  0.000000  0.000000  0.000000
 IRadAn=      5 IRanWt=     -1 IRanGd=            0 ICorTp=0 IEmpDi=  4
 HFx  wShort=  0.000000 wLong=  0.330000 cFull=  0.190000 cShort=  0.000000 cLong=  0.460000
 DFx  wShort=  0.330000 wLong=  0.000000 cFull=  0.350000 cShort=  0.460000 cLong=  0.000000
 NAtoms=   24 NActive=   24 NUniq=   24 SFac= 1.00D+00 NAtFMM=   60 NAOKFM=F Big=F
 Integral buffers will be    131072 words long.
 Raffenetti 2 integral format.
 Two-electron integral symmetry is turned on.
 Leave Link  301 at Mon Jun  3 14:33:04 2024, MaxMem=  2684354560 cpu:               0.2 elap:               0.1
 (Enter /home/software/gaussian/gdv/j19p/gdv/l302.exe)
 NPDir=0 NMtPBC=     1 NCelOv=     1 NCel=       1 NClECP=     1 NCelD=      1
         NCelK=      1 NCelE2=     1 NClLst=     1 CellRange=     0.0.
 One-electron integrals computed using PRISM.
 One-electron integral symmetry used in STVInt
 NBasis=   282 RedAO= T EigKep=  1.60D-04  NBF=   282
[...]
 Alpha  occ. eigenvalues --       -0.49799      -0.47472      -0.45177      -0.43776      -0.43352
 Alpha  occ. eigenvalues --       -0.42947      -0.41650      -0.41510      -0.32988      -0.32338
 Alpha  occ. eigenvalues --       -0.32003      -0.31913      -0.31080
 Alpha virt. eigenvalues --       -0.02331       0.02278       0.02964       0.03639       0.08091
 Alpha virt. eigenvalues --        0.08960       0.10425       0.11271       0.12069       0.12877
 Alpha virt. eigenvalues --        0.14066       0.16163       0.16537       0.16691       0.17405
 Alpha virt. eigenvalues --        0.19880       0.23173       0.27982       0.29542       0.30787
 Alpha virt. eigenvalues --        0.30913       0.32526       0.32767       0.33521       0.33571
 Alpha virt. eigenvalues --        0.33985       0.35091       0.35616       0.40439       0.41669
 Alpha virt. eigenvalues --        0.43812       0.44090       0.44158       0.45207       0.45908
 Alpha virt. eigenvalues --        0.46396       0.47000       0.47603       0.47981       0.48198
 Alpha virt. eigenvalues --        0.48375       0.49222       0.50154       0.50397       0.50739
 Alpha virt. eigenvalues --        0.51376       0.53300       0.55487       0.56301       0.57062
 Alpha virt. eigenvalues --        0.57087       0.60041       0.61133       0.62441       0.64158
 Alpha virt. eigenvalues --        0.64683       0.65496       0.65568       0.66129       0.66307
 Alpha virt. eigenvalues --        0.66454       0.67621       0.67971       0.70164       0.70310
 Alpha virt. eigenvalues --        0.70595       0.71790       0.72994       0.73213       0.74595
 Alpha virt. eigenvalues --        0.78990       0.79540       0.80125       0.80589       0.82967
 Alpha virt. eigenvalues --        0.83378       0.84794       0.86330       0.87505       0.87857
 Alpha virt. eigenvalues --        0.89673       0.91033       0.91159       0.93663       0.94546
 Alpha virt. eigenvalues --        0.97268       0.98713       0.99650       1.01464       1.05594
 Alpha virt. eigenvalues --        1.06571       1.07756       1.09634       1.10742       1.12595
 Alpha virt. eigenvalues --        1.14258       1.15563       1.17312       1.19796       1.23403
 Alpha virt. eigenvalues --        1.26404       1.26526       1.28516       1.29172       1.30388
 Alpha virt. eigenvalues --        1.30865       1.31243       1.32350       1.34387       1.37166
 Alpha virt. eigenvalues --        1.45963       1.51205       1.51602       1.53711       1.54102
 Alpha virt. eigenvalues --        1.54836       1.56016       1.57129       1.57802       1.62031
 Alpha virt. eigenvalues --        1.64996       1.68300       1.69889       1.73109       1.74793
 Alpha virt. eigenvalues --        1.75875       1.82852       1.83734       1.85611       1.85914
 Alpha virt. eigenvalues --        1.86741       1.87085       1.90033       1.92883       1.93216
 Alpha virt. eigenvalues --        1.93541       1.96904       1.97500       1.98593       1.98964
 Alpha virt. eigenvalues --        1.99414       1.99644       2.01500       2.02895       2.06731
 Alpha virt. eigenvalues --        2.08058       2.18151       2.20371       2.22924       2.30420
 Alpha virt. eigenvalues --        2.31166       2.31561       2.33163       2.33539       2.33990
 Alpha virt. eigenvalues --        2.34849       2.35343       2.37738       2.38012       2.39516
 Alpha virt. eigenvalues --        2.43096       2.44150       2.44796       2.53405       2.60699
 Alpha virt. eigenvalues --        2.61240       2.70212       2.70286       2.72293       2.75178
 Alpha virt. eigenvalues --        2.76833       2.77685       2.79519       2.81896       2.82090
 Alpha virt. eigenvalues --        2.84835       2.89721       2.90699       2.92069       2.94275
 Alpha virt. eigenvalues --        2.94600       2.99926       3.02263       3.07528       3.10840
 Alpha virt. eigenvalues --        3.12060       3.14047       3.21829       3.24577       3.26087
 Alpha virt. eigenvalues --        3.33005       3.33513       3.35916       3.36019       3.36488
 Alpha virt. eigenvalues --        3.37393       3.37620       3.38396       3.42263       3.45766
 Alpha virt. eigenvalues --        3.46205       3.53565       3.54985       3.58992       3.62052
 Alpha virt. eigenvalues --        3.64847       3.66688       3.78160       3.79122       3.95012
 Alpha virt. eigenvalues --        3.95961       4.02192       4.04315       4.17582       4.48200
 Alpha virt. eigenvalues --        4.86324       4.86687       5.01956       5.14876       5.68388
 Alpha virt. eigenvalues --       23.25722      23.33664      23.87375      23.87747      23.89645
 Alpha virt. eigenvalues --       23.90629      23.91143      24.10511      24.11079      24.12515
 Alpha virt. eigenvalues --       24.12714      24.22530      24.22565      50.03145
          Condensed to atoms (all electrons):
               1          2          3          4          5          6
     1  C    4.930509   0.538089  -0.051312  -0.036222  -0.045457   0.523025
     2  C    0.538089   4.921352   0.534061  -0.038266  -0.036415  -0.046097
     3  C   -0.051312   0.534061   5.009450   0.507377  -0.068002  -0.039518
     4  C   -0.036222  -0.038266   0.507377   5.354482   0.446576  -0.039133
     5  C   -0.045457  -0.036415  -0.068002   0.446576   4.992198   0.521017
     6  C    0.523025  -0.046097  -0.039518  -0.039133   0.521017   4.948284
     7  H    0.402164  -0.041922   0.006474  -0.000602   0.005996  -0.042093
     8  H   -0.040509   0.402247  -0.041829   0.005239  -0.000073   0.005460
     9  H    0.004852  -0.033339   0.395075  -0.044473   0.005552  -0.000281
    10  H    0.005650  -0.000677   0.005458  -0.054332   0.398503  -0.037573
    11  H   -0.042354   0.005451  -0.000019   0.006515  -0.041331   0.402192
    12  C   -0.000002  -0.000026   0.000234  -0.000643   0.000020   0.000000
    13  C    0.000000  -0.000002  -0.000053   0.000071   0.000002  -0.000000
    14  C   -0.000000   0.000000   0.000011  -0.000224  -0.000004   0.000000
    15  C    0.000002   0.000020  -0.000493   0.021006  -0.000673  -0.000004
    16  C    0.000071  -0.000643  -0.014246  -0.164351   0.021003  -0.000225
    17  C   -0.000053   0.000234  -0.005435  -0.014250  -0.000492   0.000011
    18  H   -0.000000   0.000001   0.000005   0.000012  -0.000002  -0.000000
    19  H    0.000000  -0.000000   0.000001   0.000001   0.000000  -0.000000
    20  H   -0.000000   0.000000   0.000001  -0.000004  -0.000000   0.000000
    21  H    0.000000   0.000003  -0.000195   0.003428  -0.000103  -0.000002
    22  H   -0.000001   0.000325   0.000725   0.005545  -0.000517  -0.000113
    23  C   -0.000061   0.003265  -0.037463   0.275732  -0.041409   0.007908
    24  O    0.000005  -0.000106   0.002928  -0.140237   0.014793   0.000939
               7          8          9         10         11         12
     1  C    0.402164  -0.040509   0.004852   0.005650  -0.042354  -0.000002
     2  C   -0.041922   0.402247  -0.033339  -0.000677   0.005451  -0.000026
     3  C    0.006474  -0.041829   0.395075   0.005458  -0.000019   0.000234
     4  C   -0.000602   0.005239  -0.044473  -0.054332   0.006515  -0.000643
     5  C    0.005996  -0.000073   0.005552   0.398503  -0.041331   0.000020
     6  C   -0.042093   0.005460  -0.000281  -0.037573   0.402192   0.000000
     7  H    0.473693  -0.005994  -0.000291  -0.000240  -0.005994  -0.000000
     8  H   -0.005994   0.473227  -0.005490   0.000072  -0.000326   0.000001
     9  H   -0.000291  -0.005490   0.447959  -0.000239   0.000073   0.000325
    10  H   -0.000240   0.000072  -0.000239   0.447176  -0.005883   0.000003
    11  H   -0.005994  -0.000326   0.000073  -0.005883   0.472323   0.000000
    12  C   -0.000000   0.000001   0.000325   0.000003   0.000000   4.921351
    13  C    0.000000  -0.000000  -0.000001   0.000000  -0.000000   0.538087
    14  C   -0.000000  -0.000000  -0.000113  -0.000002   0.000000  -0.046098
    15  C    0.000000  -0.000002  -0.000517  -0.000103  -0.000000  -0.036412
    16  C    0.000001   0.000012   0.005546   0.003428  -0.000004  -0.038259
    17  C    0.000001   0.000005   0.000724  -0.000195   0.000001   0.534060
    18  H   -0.000000  -0.000000   0.000005  -0.000000   0.000000   0.402249
    19  H   -0.000000  -0.000000   0.000003   0.000000   0.000000  -0.041921
    20  H    0.000000   0.000000  -0.000003  -0.000000  -0.000000   0.005451
    21  H    0.000000  -0.000000  -0.000022  -0.000040  -0.000000  -0.000677
    22  H    0.000003   0.000005  -0.003007  -0.000022  -0.000003  -0.033341
    23  C    0.000025  -0.000209  -0.005707  -0.006412  -0.000386   0.003263
    24  O   -0.000000   0.000003  -0.000058   0.017841  -0.000037  -0.000106
              13         14         15         16         17         18
     1  C    0.000000  -0.000000   0.000002   0.000071  -0.000053  -0.000000
     2  C   -0.000002   0.000000   0.000020  -0.000643   0.000234   0.000001
     3  C   -0.000053   0.000011  -0.000493  -0.014246  -0.005435   0.000005
     4  C    0.000071  -0.000224   0.021006  -0.164351  -0.014250   0.000012
     5  C    0.000002  -0.000004  -0.000673   0.021003  -0.000492  -0.000002
     6  C   -0.000000   0.000000  -0.000004  -0.000225   0.000011  -0.000000
     7  H    0.000000  -0.000000   0.000000   0.000001   0.000001  -0.000000
     8  H   -0.000000  -0.000000  -0.000002   0.000012   0.000005  -0.000000
     9  H   -0.000001  -0.000113  -0.000517   0.005546   0.000724   0.000005
    10  H    0.000000  -0.000002  -0.000103   0.003428  -0.000195  -0.000000
    11  H   -0.000000   0.000000  -0.000000  -0.000004   0.000001   0.000000
    12  C    0.538087  -0.046098  -0.036412  -0.038259   0.534060   0.402249
    13  C    4.930512   0.523017  -0.045451  -0.036226  -0.051312  -0.040509
    14  C    0.523017   4.948307   0.520991  -0.039134  -0.039516   0.005460
    15  C   -0.045451   0.520991   4.992294   0.446524  -0.068037  -0.000074
    16  C   -0.036226  -0.039134   0.446524   5.354688   0.507377   0.005238
    17  C   -0.051312  -0.039516  -0.068037   0.507377   5.009473  -0.041828
    18  H   -0.040509   0.005460  -0.000074   0.005238  -0.041828   0.473225
    19  H    0.402164  -0.042093   0.005996  -0.000602   0.006474  -0.005993
    20  H   -0.042354   0.402193  -0.041332   0.006516  -0.000019  -0.000326
    21  H    0.005650  -0.037571   0.398498  -0.054334   0.005456   0.000072
    22  H    0.004852  -0.000281   0.005552  -0.044467   0.395068  -0.005490
    23  C   -0.000061   0.007912  -0.041413   0.275635  -0.037449  -0.000209
    24  O    0.000005   0.000940   0.014797  -0.140245   0.002931   0.000003
              19         20         21         22         23         24
     1  C    0.000000  -0.000000   0.000000  -0.000001  -0.000061   0.000005
     2  C   -0.000000   0.000000   0.000003   0.000325   0.003265  -0.000106
     3  C    0.000001   0.000001  -0.000195   0.000725  -0.037463   0.002928
     4  C    0.000001  -0.000004   0.003428   0.005545   0.275732  -0.140237
     5  C    0.000000  -0.000000  -0.000103  -0.000517  -0.041409   0.014793
     6  C   -0.000000   0.000000  -0.000002  -0.000113   0.007908   0.000939
     7  H   -0.000000   0.000000   0.000000   0.000003   0.000025  -0.000000
     8  H   -0.000000   0.000000  -0.000000   0.000005  -0.000209   0.000003
     9  H    0.000003  -0.000003  -0.000022  -0.003007  -0.005707  -0.000058
    10  H    0.000000  -0.000000  -0.000040  -0.000022  -0.006412   0.017841
    11  H    0.000000  -0.000000  -0.000000  -0.000003  -0.000386  -0.000037
    12  C   -0.041921   0.005451  -0.000677  -0.033341   0.003263  -0.000106
    13  C    0.402164  -0.042354   0.005650   0.004852  -0.000061   0.000005
    14  C   -0.042093   0.402193  -0.037571  -0.000281   0.007912   0.000940
    15  C    0.005996  -0.041332   0.398498   0.005552  -0.041413   0.014797
    16  C   -0.000602   0.006516  -0.054334  -0.044467   0.275635  -0.140245
    17  C    0.006474  -0.000019   0.005456   0.395068  -0.037449   0.002931
    18  H   -0.005993  -0.000326   0.000072  -0.005490  -0.000209   0.000003
    19  H    0.473692  -0.005994  -0.000240  -0.000291   0.000025  -0.000000
    20  H   -0.005994   0.472321  -0.005883   0.000073  -0.000386  -0.000037
    21  H   -0.000240  -0.005883   0.447161  -0.000239  -0.006414   0.017853
    22  H   -0.000291   0.000073  -0.000239   0.447951  -0.005708  -0.000058
    23  C    0.000025  -0.000386  -0.006414  -0.005708   4.623681   0.743516
    24  O   -0.000000  -0.000037   0.017853  -0.000058   0.743516   7.747293
 Mulliken charges:
               1
     1  C   -0.188396
     2  C   -0.207554
     3  C   -0.203234
     4  C   -0.093249
     5  C   -0.171182
     6  C   -0.203798
     7  H    0.208777
     8  H    0.208160
     9  H    0.233427
    10  H    0.227588
    11  H    0.209781
    12  C   -0.207559
    13  C   -0.188390
    14  C   -0.203795
    15  C   -0.171172
    16  C   -0.093304
    17  C   -0.203226
    18  H    0.208161
    19  H    0.208778
    20  H    0.209783
    21  H    0.227600
    22  H    0.233438
    23  C    0.242326
    24  O   -0.282961
 Sum of Mulliken charges =  -0.00000
 Mulliken charges with hydrogens summed into heavy atoms:
               1
     1  C    0.020381
     2  C    0.000606
     3  C    0.030194
     4  C   -0.093249
     5  C    0.056406
     6  C    0.005983
    12  C    0.000602
    13  C    0.020388
    14  C    0.005988
    15  C    0.056428
    16  C   -0.093304
    17  C    0.030212
    23  C    0.242326
    24  O   -0.282961
 Electronic spatial extent (au):  <R**2>=           3076.4719
 Charge=             -0.0000 electrons
 Dipole moment (field-independent basis, Debye):
    X=             -0.0002    Y=             -2.9974    Z=             -0.0004  Tot=              2.9974
 Quadrupole moment (field-independent basis, Debye-Ang):
   XX=            -65.5401   YY=            -82.6477   ZZ=            -82.9406
   XY=             -0.0008   XZ=             -2.6138   YZ=             -0.0022
 Traceless Quadrupole moment (field-independent basis, Debye-Ang):
   XX=             11.5027   YY=             -5.6049   ZZ=             -5.8978
   XY=             -0.0008   XZ=             -2.6138   YZ=             -0.0022
 Octapole moment (field-independent basis, Debye-Ang**2):
  XXX=             -0.0072  YYY=            -17.3480  ZZZ=              0.0027  XYY=             -0.0044
  XXY=             -5.4668  XXZ=             -0.0061  XZZ=              0.0057  YZZ=              3.9882
  YYZ=             -0.0031  XYZ=            -17.0286
 Hexadecapole moment (field-independent basis, Debye-Ang**3):
 XXXX=          -2915.6647 YYYY=           -762.4908 ZZZZ=           -223.8074 XXXY=             -0.0203
 XXXZ=            -66.3009 YYYX=              0.0013 YYYZ=             -0.0049 ZZZX=             -4.3078
 ZZZY=             -0.0049 XXYY=           -621.8198 XXZZ=           -625.3018 YYZZ=           -146.7134
 XXYZ=             -0.0059 YYXZ=              8.1890 ZZXY=              0.0011
 N-N= 7.774787707604D+02 E-N=-2.896363505751D+03  KE= 5.746449523709D+02
 Leave Link  601 at Mon Jun  3 14:40:33 2024, MaxMem=  5368709120 cpu:               0.6 elap:               0.1
 (Enter /home/software/gaussian/gdv/j19p/gdv/l9999.exe)
 Electronic transition elements 
                 1             2             3             4             5 
      1  -0.576294D+03 -0.576249D+03 -0.576248D+03 -0.576241D+03 -0.576235D+03
      2  -0.228337D-02 -0.884578D-02  0.428298D+00 -0.163575D+01  0.124469D-01
      3  -0.953522D-01 -0.367379D+00 -0.206661D-01  0.152947D-01  0.556288D+00
      4   0.643384D-02  0.249926D-01 -0.154887D+00 -0.325599D+00 -0.376822D-01
      5   0.217330D-03  0.175835D-02 -0.834931D-01  0.317302D+00 -0.242537D-02
      6   0.888656D-02  0.729855D-01  0.432345D-02 -0.327859D-02 -0.108611D+00
      7  -0.603869D-03 -0.496697D-02  0.345173D-01  0.585229D-01  0.735964D-02
      8  -0.196621D-01  0.601507D-02  0.275531D-01  0.181627D+00  0.205435D-02
      9  -0.865220D+00  0.268347D+00 -0.309221D-01 -0.391376D-01  0.920283D-01
     10   0.584634D-01 -0.172610D-01 -0.454298D+00 -0.519458D+00 -0.618815D-02
     11  -0.245778D+00  0.294593D+00 -0.119163D-01 -0.191883D-01  0.154390D+01
     12   0.503864D-01 -0.177447D-01  0.667013D-02 -0.419610D-02 -0.413865D+00
     13   0.883150D-02 -0.530192D-01  0.536088D-02  0.235686D-01  0.556779D-01
     14   0.856339D-02 -0.166904D-01 -0.265309D+00 -0.426121D+00 -0.349142D-01
     15   0.272172D-01 -0.149083D+00  0.167157D-01  0.248457D-01  0.144044D+00
     16  -0.347555D-02  0.112922D-02 -0.405901D-01 -0.174621D+00  0.286257D-01
                 6             7             8             9            10 
      1  -0.576207D+03 -0.576203D+03 -0.576202D+03 -0.576196D+03 -0.576194D+03
      2  -0.708893D-01  0.240863D+00 -0.154517D-01  0.119428D+01 -0.307306D-02
      3   0.260987D-01  0.301538D-01 -0.837333D+00 -0.287105D-01 -0.256504D+00
      4   0.351884D+00  0.346217D+00  0.620935D-01 -0.313802D-01  0.174649D-01
      5   0.231105D-01 -0.467596D-01  0.390526D-02 -0.287551D+00  0.712932D-03
      6  -0.653287D-02 -0.741893D-02  0.202113D+00  0.734264D-02  0.605163D-01
      7  -0.864250D-01 -0.819057D-01 -0.149596D-01  0.139643D-01 -0.411080D-02
      8  -0.809201D-01 -0.118263D+00  0.111868D-01  0.128089D+00 -0.407710D-02
      9   0.786348D-01  0.555239D-01  0.578332D+00 -0.195785D-01 -0.185917D+00
     10   0.114851D+01  0.909563D+00 -0.236330D-01 -0.251165D+00  0.122848D-01
     11   0.344050D-01  0.266058D-01  0.128457D+00  0.210251D-02 -0.149661D+01
     12  -0.938017D-02 -0.156634D-02 -0.110020D+00  0.761286D-02  0.108557D+00
     13  -0.247897D-01 -0.224126D-01 -0.183803D+00 -0.765664D-02 -0.757361D-02
     14   0.756491D+00  0.622859D+00 -0.276178D-01 -0.127023D-02  0.302777D-01
     15  -0.462417D-01 -0.306258D-01 -0.485046D+00  0.150513D-02 -0.963080D-01
     16   0.185620D+00  0.186072D+00  0.921466D-02  0.566359D-01 -0.555751D-02
 Unable to Open any file for archive entry.
 1\1\GINC-TYCHE\SP\RCAM-B3LYP TD-FC\6-311G(d)\C13H10O1\RBECK4\03-Jun-20
 24\0\\#p cam-b3lyp 6-311G(D) geom=allcheck td=nstates=10 guess=read\\T
 itle Card Required\\0,1\C,0,-1.9726088319,-2.2926948267,-0.1399322385\
 C,0,-0.8125213579,-2.9681506601,-0.4897583297\C,0,0.425299408,-2.37224
 19509,-0.2933156565\C,0,0.5089985089,-1.0881580266,0.2417675147\C,0,-0
 .6636060534,-0.4064519287,0.5652495881\C,0,-1.8966117084,-1.0095008586
 ,0.3886998658\H,0,-2.9387579239,-2.7631389136,-0.2859119893\H,0,-0.870
 1857067,-3.961821897,-0.9196231476\H,0,1.3262846378,-2.8997044957,-0.5
 81870075\H,0,-0.585091714,0.6029572902,0.9501001204\H,0,-2.8025950605,
 -0.4770790122,0.6555064956\C,0,4.3083459048,-2.9403154195,1.651852118\
 C,0,5.4968039833,-2.3709604802,1.2184672797\C,0,5.4774325666,-1.168063
 1872,0.5224187698\C,0,4.2724741099,-0.539000117,0.2626347434\C,0,3.071
 1499797,-1.1174976607,0.6707206911\C,0,3.0981977346,-2.3207619866,1.37
 32980083\H,0,4.3222196253,-3.8690089932,2.211161389\H,0,6.4410936955,-
 2.8607906836,1.42931246\H,0,6.4058131096,-0.7177016235,0.1896297751\H,
 0,4.2385885059,0.4122394528,-0.254251891\H,0,2.1751062701,-2.763559465
 5,1.7269609841\C,0,1.8069840152,-0.3600315666,0.4060453258\O,0,1.83448
 06524,0.8491868609,0.3243120758\\Version=ES64L-GDVRevJ.19+\State=1-A\H
 F=-576.4376937\RMSD=3.027e-09\PG=C01 [X(C13H10O1)]\\@
 The archive entry for this job was punched.


 We're simply so accustomed to the marvels of everyday thought
 that we never wonder about it.
 -- Marvin Minsky in "Why people think computers are smart"
 Job cpu time:       0 days  0 hours 29 minutes  0.4 seconds.
 Elapsed time:       0 days  0 hours  1 minutes 11.8 seconds.
 File lengths (MBytes):  RWF=    573 Int=      0 D2E=      0 Chk=     33 Scr=      1
 Normal termination of Gaussian DV at Mon Jun  3 14:40:33 2024.
