 Entering Gaussian System, Link 0=g16
 Input=/Volumes/Drive/2024_REU/ethane.gjf
 Output=/Volumes/Drive/2024_REU/ethane.log
 Initial command:
 /Applications//g16/l1.exe "/tmp/Gau-77335.inp" -scrdir="/tmp/"
 Entering Link 1 = /Applications//g16/l1.exe PID=     77336.
  
 Copyright (c) 1988-2017, Gaussian, Inc.  All Rights Reserved.
  
 This is part of the Gaussian(R) 16 program.  It is based on
 the Gaussian(R) 09 system (copyright 2009, Gaussian, Inc.),
 the Gaussian(R) 03 system (copyright 2003, Gaussian, Inc.),
 the Gaussian(R) 98 system (copyright 1998, Gaussian, Inc.),
 the Gaussian(R) 94 system (copyright 1995, Gaussian, Inc.),
 the Gaussian 92(TM) system (copyright 1992, Gaussian, Inc.),
 the Gaussian 90(TM) system (copyright 1990, Gaussian, Inc.),
 the Gaussian 88(TM) system (copyright 1988, Gaussian, Inc.),
 the Gaussian 86(TM) system (copyright 1986, Carnegie Mellon
 University), and the Gaussian 82(TM) system (copyright 1983,
 Carnegie Mellon University). Gaussian is a federally registered
 trademark of Gaussian, Inc.
  
 This software contains proprietary and confidential information,
 including trade secrets, belonging to Gaussian, Inc.
  
 This software is provided under written license and may be
 used, copied, transmitted, or stored only in accord with that
 written license.
  
 The following legend is applicable only to US Government
 contracts under FAR:
  
                    RESTRICTED RIGHTS LEGEND
  
 Use, reproduction and disclosure by the US Government is
 subject to restrictions as set forth in subparagraphs (a)
 and (c) of the Commercial Computer Software - Restricted
 Rights clause in FAR 52.227-19.
  
 Gaussian, Inc.
 340 Quinnipiac St., Bldg. 40, Wallingford CT 06492
  
  
 ---------------------------------------------------------------
 Warning -- This program may not be used in any manner that
 competes with the business of Gaussian, Inc. or will provide
 assistance to any competitor of Gaussian, Inc.  The licensee
 of this program is prohibited from giving any competitor of
 Gaussian, Inc. access to this program.  By using this program,
 the user acknowledges that Gaussian, Inc. is engaged in the
 business of creating and licensing software in the field of
 computational chemistry and represents and warrants to the
 licensee that it is not a competitor of Gaussian, Inc. and that
 it will not use this program in any manner prohibited above.
 ---------------------------------------------------------------
  

 Cite this work as:
 Gaussian 16, Revision B.01,
 M. J. Frisch, G. W. Trucks, H. B. Schlegel, G. E. Scuseria, 
 M. A. Robb, J. R. Cheeseman, G. Scalmani, V. Barone, 
 G. A. Petersson, H. Nakatsuji, X. Li, M. Caricato, A. V. Marenich, 
 J. Bloino, B. G. Janesko, R. Gomperts, B. Mennucci, H. P. Hratchian, 
 J. V. Ortiz, A. F. Izmaylov, J. L. Sonnenberg, D. Williams-Young, 
 F. Ding, F. Lipparini, F. Egidi, J. Goings, B. Peng, A. Petrone, 
 T. Henderson, D. Ranasinghe, V. G. Zakrzewski, J. Gao, N. Rega, 
 G. Zheng, W. Liang, M. Hada, M. Ehara, K. Toyota, R. Fukuda, 
 J. Hasegawa, M. Ishida, T. Nakajima, Y. Honda, O. Kitao, H. Nakai, 
 T. Vreven, K. Throssell, J. A. Montgomery, Jr., J. E. Peralta, 
 F. Ogliaro, M. J. Bearpark, J. J. Heyd, E. N. Brothers, K. N. Kudin, 
 V. N. Staroverov, T. A. Keith, R. Kobayashi, J. Normand, 
 K. Raghavachari, A. P. Rendell, J. C. Burant, S. S. Iyengar, 
 J. Tomasi, M. Cossi, J. M. Millam, M. Klene, C. Adamo, R. Cammi, 
 J. W. Ochterski, R. L. Martin, K. Morokuma, O. Farkas, 
 J. B. Foresman, and D. J. Fox, Gaussian, Inc., Wallingford CT, 2016.
 
 ******************************************
 Gaussian 16:  EM64M-G16RevB.01 20-Dec-2017
                14-May-2024 
 ******************************************
 %chk=ethane.chk
 --------------------------
 #p opt freq b3lyp/6-31g(d)
 --------------------------
 1/18=20,19=15,26=3,38=1/1,3;
 2/9=110,12=2,17=6,18=5,40=1/2;
 3/5=1,6=6,7=1,11=2,25=1,30=1,71=1,74=-5/1,2,3;
 4//1;
 5/5=2,38=5/2;
 6/7=2,8=2,9=2,10=2,28=1/1;
 7//1,2,3,16;
 1/18=20,19=15,26=3/3(2);
 2/9=110/2;
 99//99;
 2/9=110/2;
 3/5=1,6=6,7=1,11=2,25=1,30=1,71=1,74=-5/1,2,3;
 4/5=5,16=3,69=1/1;
 5/5=2,38=5/2;
 7//1,2,3,16;
 1/18=20,19=15,26=3/3(-5);
 2/9=110/2;
 6/7=2,8=2,9=2,10=2,19=2,28=1/1;
 99/9=1/99;
 Leave Link    1 at Tue May 14 14:05:13 2024, MaxMem=           0 cpu:               0.0 elap:               0.0
 (Enter /Applications//g16/l101.exe)
 -------------------
 Title Card Required
 -------------------
 Symbolic Z-matrix:
 Charge =  0 Multiplicity = 1
 C                     0.29412   0.89965   0. 
 H                     0.65077  -0.10916   0. 
 H                     0.65079   1.40405  -0.87365 
 H                    -0.77588   0.89967   0. 
 C                     0.80746   1.62561   1.2574 
 H                     0.4524    2.63498   1.25643 
 H                     0.44919   1.12234   2.13105 
 H                     1.87746   1.6239    1.25838 
 
 ITRead=  0  0  0  0  0  0  0  0
 MicOpt= -1 -1 -1 -1 -1 -1 -1 -1
 NAtoms=      8 NQM=        8 NQMF=       0 NMMI=      0 NMMIF=      0
                NMic=       0 NMicF=      0.
                    Isotopes and Nuclear Properties:
 (Nuclear quadrupole moments (NQMom) in fm**2, nuclear magnetic moments (NMagM)
  in nuclear magnetons)

  Atom         1           2           3           4           5           6           7           8
 IAtWgt=          12           1           1           1          12           1           1           1
 AtmWgt=  12.0000000   1.0078250   1.0078250   1.0078250  12.0000000   1.0078250   1.0078250   1.0078250
 NucSpn=           0           1           1           1           0           1           1           1
 AtZEff=  -0.0000000  -0.0000000  -0.0000000  -0.0000000  -0.0000000  -0.0000000  -0.0000000  -0.0000000
 NQMom=    0.0000000   0.0000000   0.0000000   0.0000000   0.0000000   0.0000000   0.0000000   0.0000000
 NMagM=    0.0000000   2.7928460   2.7928460   2.7928460   0.0000000   2.7928460   2.7928460   2.7928460
 AtZNuc=   6.0000000   1.0000000   1.0000000   1.0000000   6.0000000   1.0000000   1.0000000   1.0000000
 Leave Link  101 at Tue May 14 14:05:13 2024, MaxMem=  1610612736 cpu:               0.3 elap:               0.3
 (Enter /Applications//g16/l103.exe)

 GradGradGradGradGradGradGradGradGradGradGradGradGradGradGradGradGradGrad
 Berny optimization.
 Initialization pass.
                           ----------------------------
                           !    Initial Parameters    !
                           ! (Angstroms and Degrees)  !
 --------------------------                            --------------------------
 ! Name  Definition              Value          Derivative Info.                !
 --------------------------------------------------------------------------------
 ! R1    R(1,2)                  1.07           estimate D2E/DX2                !
 ! R2    R(1,3)                  1.07           estimate D2E/DX2                !
 ! R3    R(1,4)                  1.07           estimate D2E/DX2                !
 ! R4    R(1,5)                  1.54           estimate D2E/DX2                !
 ! R5    R(5,6)                  1.07           estimate D2E/DX2                !
 ! R6    R(5,7)                  1.07           estimate D2E/DX2                !
 ! R7    R(5,8)                  1.07           estimate D2E/DX2                !
 ! A1    A(2,1,3)              109.4712         estimate D2E/DX2                !
 ! A2    A(2,1,4)              109.4712         estimate D2E/DX2                !
 ! A3    A(2,1,5)              109.4712         estimate D2E/DX2                !
 ! A4    A(3,1,4)              109.4712         estimate D2E/DX2                !
 ! A5    A(3,1,5)              109.4713         estimate D2E/DX2                !
 ! A6    A(4,1,5)              109.4712         estimate D2E/DX2                !
 ! A7    A(1,5,6)              109.4712         estimate D2E/DX2                !
 ! A8    A(1,5,7)              109.4712         estimate D2E/DX2                !
 ! A9    A(1,5,8)              109.4712         estimate D2E/DX2                !
 ! A10   A(6,5,7)              109.4713         estimate D2E/DX2                !
 ! A11   A(6,5,8)              109.4712         estimate D2E/DX2                !
 ! A12   A(7,5,8)              109.4712         estimate D2E/DX2                !
 ! D1    D(2,1,5,6)            179.8889         estimate D2E/DX2                !
 ! D2    D(2,1,5,7)            -60.1111         estimate D2E/DX2                !
 ! D3    D(2,1,5,8)             59.8889         estimate D2E/DX2                !
 ! D4    D(3,1,5,6)             59.8889         estimate D2E/DX2                !
 ! D5    D(3,1,5,7)            179.8889         estimate D2E/DX2                !
 ! D6    D(3,1,5,8)            -60.1111         estimate D2E/DX2                !
 ! D7    D(4,1,5,6)            -60.1111         estimate D2E/DX2                !
 ! D8    D(4,1,5,7)             59.8889         estimate D2E/DX2                !
 ! D9    D(4,1,5,8)            179.8889         estimate D2E/DX2                !
 --------------------------------------------------------------------------------
 Trust Radius=3.00D-01 FncErr=1.00D-07 GrdErr=1.00D-06 EigMax=2.50D+02 EigMin=1.00D-04
 Number of steps in this run=     38 maximum allowed number of steps=    100.
 GradGradGradGradGradGradGradGradGradGradGradGradGradGradGradGradGradGrad

 Leave Link  103 at Tue May 14 14:05:14 2024, MaxMem=  1610612736 cpu:               0.0 elap:               0.0
 (Enter /Applications//g16/l202.exe)
                          Input orientation:                          
 ---------------------------------------------------------------------
 Center     Atomic      Atomic             Coordinates (Angstroms)
 Number     Number       Type             X           Y           Z
 ---------------------------------------------------------------------
      1          6           0        0.294118    0.899654    0.000000
      2          1           0        0.650772   -0.109156    0.000000
      3          1           0        0.650790    1.404052   -0.873652
      4          1           0       -0.775882    0.899667    0.000000
      5          6           0        0.807460    1.625610    1.257405
      6          1           0        0.452404    2.634983    1.256427
      7          1           0        0.449191    1.122342    2.131055
      8          1           0        1.877458    1.623904    1.258384
 ---------------------------------------------------------------------
                    Distance matrix (angstroms):
                    1          2          3          4          5
     1  C    0.000000
     2  H    1.070000   0.000000
     3  H    1.070000   1.747302   0.000000
     4  H    1.070000   1.747303   1.747303   0.000000
     5  C    1.540000   2.148263   2.148263   2.148263   0.000000
     6  H    2.148263   3.024609   2.468154   2.469538   1.070000
     7  H    2.148263   2.469538   3.024610   2.468154   1.070000
     8  H    2.148263   2.468154   2.469539   3.024610   1.070000
                    6          7          8
     6  H    0.000000
     7  H    1.747303   0.000000
     8  H    1.747303   1.747303   0.000000
 Stoichiometry    C2H6
 Framework group  D3[C3(C.C),X(H6)]
 Deg. of freedom     4
 Full point group                 D3      NOp   6
 Largest Abelian subgroup         C2      NOp   2
 Largest concise Abelian subgroup C2      NOp   2
                         Standard orientation:                         
 ---------------------------------------------------------------------
 Center     Atomic      Atomic             Coordinates (Angstroms)
 Number     Number       Type             X           Y           Z
 ---------------------------------------------------------------------
      1          6           0       -0.000000   -0.000000    0.770000
      2          1           0       -0.503556    0.874140    1.126666
      3          1           0        1.008805   -0.000978    1.126666
      4          1           0       -0.505250   -0.873162    1.126666
      5          6           0        0.000000   -0.000000   -0.770000
      6          1           0        0.505250   -0.873162   -1.126666
      7          1           0       -1.008805   -0.000978   -1.126666
      8          1           0        0.503556    0.874140   -1.126666
 ---------------------------------------------------------------------
 Rotational constants (GHZ):          82.1231620          20.2293893          20.2293893
 Leave Link  202 at Tue May 14 14:05:14 2024, MaxMem=  1610612736 cpu:               0.0 elap:               0.0
 (Enter /Applications//g16/l301.exe)
 Standard basis: 6-31G(d) (6D, 7F)
 Ernie: Thresh=  0.10000D-02 Tol=  0.10000D-05 Strict=F.
 There are    21 symmetry adapted cartesian basis functions of A   symmetry.
 There are    21 symmetry adapted cartesian basis functions of B   symmetry.
 There are    21 symmetry adapted basis functions of A   symmetry.
 There are    21 symmetry adapted basis functions of B   symmetry.
    42 basis functions,    80 primitive gaussians,    42 cartesian basis functions
     9 alpha electrons        9 beta electrons
       nuclear repulsion energy        42.6703237746 Hartrees.
 IExCor=  402 DFT=T Ex+Corr=B3LYP ExCW=0 ScaHFX=  0.200000
 ScaDFX=  0.800000  0.720000  1.000000  0.810000 ScalE2=  1.000000  1.000000
 IRadAn=      5 IRanWt=     -1 IRanGd=            0 ICorTp=0 IEmpDi=  4
 NAtoms=    8 NActive=    8 NUniq=    2 SFac= 4.00D+00 NAtFMM=   60 NAOKFM=F Big=F
 Integral buffers will be    131072 words long.
 Raffenetti 2 integral format.
 Two-electron integral symmetry is turned on.
 Leave Link  301 at Tue May 14 14:05:14 2024, MaxMem=  1610612736 cpu:               0.0 elap:               0.0
 (Enter /Applications//g16/l302.exe)
 NPDir=0 NMtPBC=     1 NCelOv=     1 NCel=       1 NClECP=     1 NCelD=      1
         NCelK=      1 NCelE2=     1 NClLst=     1 CellRange=     0.0.
 One-electron integrals computed using PRISM.
 One-electron integral symmetry used in STVInt
 NBasis=    42 RedAO= T EigKep=  7.98D-03  NBF=    21    21
 NBsUse=    42 1.00D-06 EigRej= -1.00D+00 NBFU=    21    21
 Precomputing XC quadrature grid using
 IXCGrd= 4 IRadAn=           5 IRanWt=          -1 IRanGd=           0 AccXCQ= 0.00D+00.
 Generated NRdTot=       0 NPtTot=           0 NUsed=           0 NTot=          32
 NSgBfM=    42    42    42    42    42 MxSgAt=     8 MxSgA2=     8.
 Leave Link  302 at Tue May 14 14:05:14 2024, MaxMem=  1610612736 cpu:               0.1 elap:               0.1
 (Enter /Applications//g16/l303.exe)
 DipDrv:  MaxL=1.
 Leave Link  303 at Tue May 14 14:05:14 2024, MaxMem=  1610612736 cpu:               0.0 elap:               0.0
 (Enter /Applications//g16/l401.exe)
 ExpMin= 1.61D-01 ExpMax= 3.05D+03 ExpMxC= 4.57D+02 IAcc=3 IRadAn=         5 AccDes= 0.00D+00
 Harris functional with IExCor=  402 and IRadAn=       5 diagonalized for initial guess.
 HarFok:  IExCor=  402 AccDes= 0.00D+00 IRadAn=         5 IDoV= 1 UseB2=F ITyADJ=14
 ICtDFT=  3500011 ScaDFX=  1.000000  1.000000  1.000000  1.000000
 FoFCou: FMM=F IPFlag=           0 FMFlag=      100000 FMFlg1=           0
         NFxFlg=           0 DoJE=T BraDBF=F KetDBF=T FulRan=T
         wScrn=  0.000000 ICntrl=       500 IOpCl=  0 I1Cent=   200000004 NGrid=           0
         NMat0=    1 NMatS0=      1 NMatT0=    0 NMatD0=    1 NMtDS0=    0 NMtDT0=    0
 Petite list used in FoFCou.
 Harris En= -79.8897963331822    
 JPrj=0 DoOrth=F DoCkMO=F.
 Initial guess orbital symmetries:
       Occupied  (A1) (A2) (A1) (A2) (E) (E) (A1) (E) (E)
       Virtual   (A1) (A2) (E) (E) (E) (E) (A2) (A1) (E) (E) (E)
                 (E) (A2) (E) (E) (A1) (E) (E) (A2) (A1) (E) (E)
                 (A2) (A1) (E) (E) (E) (E) (E) (E) (A2) (A1) (A2)
 The electronic state of the initial guess is 1-A1.
 Leave Link  401 at Tue May 14 14:05:14 2024, MaxMem=  1610612736 cpu:               0.2 elap:               0.3
 (Enter /Applications//g16/l502.exe)
 Keep R1 ints in memory in symmetry-blocked form, NReq=1275559.
 FoFCou: FMM=F IPFlag=           0 FMFlag=           0 FMFlg1=           0
         NFxFlg=           0 DoJE=F BraDBF=F KetDBF=F FulRan=T
         wScrn=  0.000000 ICntrl=       600 IOpCl=  0 I1Cent=           0 NGrid=           0
         NMat0=    1 NMatS0=    903 NMatT0=    0 NMatD0=    1 NMtDS0=    0 NMtDT0=    0
 Petite list used in FoFCou.
 Closed shell SCF:
 Using DIIS extrapolation, IDIIS=  1040.
 NGot=  1610612736 LenX=  1610401526 LenY=  1610399321
 Requested convergence on RMS density matrix=1.00D-08 within 128 cycles.
 Requested convergence on MAX density matrix=1.00D-06.
 Requested convergence on             energy=1.00D-06.
 No special actions if energy rises.
 Integral accuracy reduced to 1.0D-05 until final iterations.

 Cycle   1  Pass 0  IDiag  1:
 E= -79.6935936743934    
 DIIS: error= 6.56D-02 at cycle   1 NSaved=   1.
 NSaved= 1 IEnMin= 1 EnMin= -79.6935936743934     IErMin= 1 ErrMin= 6.56D-02
 ErrMax= 6.56D-02  0.00D+00 EMaxC= 1.00D-01 BMatC= 1.20D-01 BMatP= 1.20D-01
 IDIUse=3 WtCom= 3.44D-01 WtEn= 6.56D-01
 Coeff-Com:  0.100D+01
 Coeff-En:   0.100D+01
 Coeff:      0.100D+01
 Gap=     0.385 Goal=   None    Shift=    0.000
 GapD=    0.385 DampG=1.000 DampE=0.500 DampFc=0.5000 IDamp=-1.
 Damping current iteration by 5.00D-01
 RMSDP=1.66D-02 MaxDP=1.45D-01              OVMax= 1.86D-01

 Cycle   2  Pass 0  IDiag  1:
 E= -79.7549054391072     Delta-E=       -0.061311764714 Rises=F Damp=T
 DIIS: error= 1.15D-02 at cycle   2 NSaved=   2.
 NSaved= 2 IEnMin= 2 EnMin= -79.7549054391072     IErMin= 2 ErrMin= 1.15D-02
 ErrMax= 1.15D-02  0.00D+00 EMaxC= 1.00D-01 BMatC= 3.46D-03 BMatP= 1.20D-01
 IDIUse=3 WtCom= 8.85D-01 WtEn= 1.15D-01
 Coeff-Com:  0.678D-01 0.932D+00
 Coeff-En:   0.993D-01 0.901D+00
 Coeff:      0.714D-01 0.929D+00
 Gap=     0.446 Goal=   None    Shift=    0.000
 RMSDP=1.78D-03 MaxDP=1.29D-02 DE=-6.13D-02 OVMax= 9.50D-02

 Cycle   3  Pass 0  IDiag  1:
 E= -79.8269552754731     Delta-E=       -0.072049836366 Rises=F Damp=F
 DIIS: error= 2.32D-03 at cycle   3 NSaved=   3.
 NSaved= 3 IEnMin= 3 EnMin= -79.8269552754731     IErMin= 3 ErrMin= 2.32D-03
 ErrMax= 2.32D-03  0.00D+00 EMaxC= 1.00D-01 BMatC= 1.21D-04 BMatP= 3.46D-03
 IDIUse=3 WtCom= 9.77D-01 WtEn= 2.32D-02
 Coeff-Com:  0.600D-02 0.101D+00 0.893D+00
 Coeff-En:   0.000D+00 0.000D+00 0.100D+01
 Coeff:      0.586D-02 0.986D-01 0.895D+00
 Gap=     0.453 Goal=   None    Shift=    0.000
 RMSDP=2.88D-04 MaxDP=1.78D-03 DE=-7.20D-02 OVMax= 3.87D-03

 Cycle   4  Pass 0  IDiag  1:
 E= -79.8270565223997     Delta-E=       -0.000101246927 Rises=F Damp=F
 DIIS: error= 6.72D-04 at cycle   4 NSaved=   4.
 NSaved= 4 IEnMin= 4 EnMin= -79.8270565223997     IErMin= 4 ErrMin= 6.72D-04
 ErrMax= 6.72D-04  0.00D+00 EMaxC= 1.00D-01 BMatC= 8.35D-06 BMatP= 1.21D-04
 IDIUse=3 WtCom= 9.93D-01 WtEn= 6.72D-03
 Coeff-Com:  0.121D-02-0.457D-02 0.195D+00 0.808D+00
 Coeff-En:   0.000D+00 0.000D+00 0.000D+00 0.100D+01
 Coeff:      0.120D-02-0.454D-02 0.194D+00 0.810D+00
 Gap=     0.453 Goal=   None    Shift=    0.000
 RMSDP=6.21D-05 MaxDP=3.46D-04 DE=-1.01D-04 OVMax= 9.33D-04

 Cycle   5  Pass 0  IDiag  1:
 E= -79.8270641674840     Delta-E=       -0.000007645084 Rises=F Damp=F
 DIIS: error= 1.12D-05 at cycle   5 NSaved=   5.
 NSaved= 5 IEnMin= 5 EnMin= -79.8270641674840     IErMin= 5 ErrMin= 1.12D-05
 ErrMax= 1.12D-05  0.00D+00 EMaxC= 1.00D-01 BMatC= 3.93D-09 BMatP= 8.35D-06
 IDIUse=1 WtCom= 1.00D+00 WtEn= 0.00D+00
 Coeff-Com:  0.881D-04-0.218D-03-0.928D-02-0.247D-01 0.103D+01
 Coeff:      0.881D-04-0.218D-03-0.928D-02-0.247D-01 0.103D+01
 Gap=     0.453 Goal=   None    Shift=    0.000
 RMSDP=1.51D-06 MaxDP=1.54D-05 DE=-7.65D-06 OVMax= 2.34D-05

 Initial convergence to 1.0D-05 achieved.  Increase integral accuracy.
 Cycle   6  Pass 1  IDiag  1:
 E= -79.8270656379381     Delta-E=       -0.000001470454 Rises=F Damp=F
 DIIS: error= 6.16D-07 at cycle   1 NSaved=   1.
 NSaved= 1 IEnMin= 1 EnMin= -79.8270656379381     IErMin= 1 ErrMin= 6.16D-07
 ErrMax= 6.16D-07  0.00D+00 EMaxC= 1.00D-01 BMatC= 1.41D-11 BMatP= 1.41D-11
 IDIUse=1 WtCom= 1.00D+00 WtEn= 0.00D+00
 Coeff-Com:  0.100D+01
 Coeff:      0.100D+01
 Gap=     0.453 Goal=   None    Shift=    0.000
 RMSDP=1.51D-06 MaxDP=1.54D-05 DE=-1.47D-06 OVMax= 1.38D-06

 Cycle   7  Pass 1  IDiag  1:
 E= -79.8270656379575     Delta-E=       -0.000000000019 Rises=F Damp=F
 DIIS: error= 5.09D-08 at cycle   2 NSaved=   2.
 NSaved= 2 IEnMin= 2 EnMin= -79.8270656379575     IErMin= 2 ErrMin= 5.09D-08
 ErrMax= 5.09D-08  0.00D+00 EMaxC= 1.00D-01 BMatC= 9.61D-14 BMatP= 1.41D-11
 IDIUse=1 WtCom= 1.00D+00 WtEn= 0.00D+00
 Coeff-Com:  0.536D-02 0.995D+00
 Coeff:      0.536D-02 0.995D+00
 Gap=     0.453 Goal=   None    Shift=    0.000
 RMSDP=8.19D-09 MaxDP=5.21D-08 DE=-1.94D-11 OVMax= 9.57D-08

 SCF Done:  E(RB3LYP) =  -79.8270656380     A.U. after    7 cycles
            NFock=  7  Conv=0.82D-08     -V/T= 2.0082
 KE= 7.917887395626D+01 PE=-2.693007833812D+02 EE= 6.762452001230D+01
 Leave Link  502 at Tue May 14 14:05:15 2024, MaxMem=  1610612736 cpu:               0.6 elap:               0.6
 (Enter /Applications//g16/l601.exe)
 Copying SCF densities to generalized density rwf, IOpCl= 0 IROHF=0.

 **********************************************************************

            Population analysis using the SCF Density.

 **********************************************************************

 Orbital symmetries:
       Occupied  (A1) (A2) (A1) (A2) (E) (E) (A1) (E) (E)
       Virtual   (A1) (A2) (E) (E) (E) (E) (A2) (A1) (E) (E) (E)
                 (E) (A2) (E) (E) (A1) (E) (E) (A2) (A1) (A2) (E)
                 (E) (A1) (E) (E) (E) (E) (E) (E) (A2) (A1) (A2)
 The electronic state is 1-A1.
 Alpha  occ. eigenvalues --  -10.16282 -10.16262  -0.75194  -0.61559  -0.43767
 Alpha  occ. eigenvalues --   -0.43767  -0.35191  -0.34644  -0.34644
 Alpha virt. eigenvalues --    0.10698   0.16637   0.17652   0.17652   0.19262
 Alpha virt. eigenvalues --    0.19262   0.23680   0.51133   0.54381   0.54381
 Alpha virt. eigenvalues --    0.62002   0.62002   0.66777   0.90393   0.90393
 Alpha virt. eigenvalues --    0.92618   0.94445   0.94445   1.01225   1.07871
 Alpha virt. eigenvalues --    1.44682   1.51648   1.51648   1.94397   2.01418
 Alpha virt. eigenvalues --    2.01418   2.31495   2.31495   2.32823   2.32823
 Alpha virt. eigenvalues --    2.59401   4.16208   4.37737
          Condensed to atoms (all electrons):
               1          2          3          4          5          6
     1  C    5.009667   0.387596   0.387596   0.387596   0.377965  -0.036269
     2  H    0.387596   0.567238  -0.031519  -0.031519  -0.036269   0.005159
     3  H    0.387596  -0.031519   0.567238  -0.031519  -0.036269  -0.003966
     4  H    0.387596  -0.031519  -0.031519   0.567238  -0.036269  -0.003925
     5  C    0.377965  -0.036269  -0.036269  -0.036269   5.009667   0.387596
     6  H   -0.036269   0.005159  -0.003966  -0.003925   0.387596   0.567238
     7  H   -0.036269  -0.003925   0.005159  -0.003966   0.387596  -0.031519
     8  H   -0.036269  -0.003966  -0.003925   0.005159   0.387596  -0.031519
               7          8
     1  C   -0.036269  -0.036269
     2  H   -0.003925  -0.003966
     3  H    0.005159  -0.003925
     4  H   -0.003966   0.005159
     5  C    0.387596   0.387596
     6  H   -0.031519  -0.031519
     7  H    0.567238  -0.031519
     8  H   -0.031519   0.567238
 Mulliken charges:
               1
     1  C   -0.441613
     2  H    0.147204
     3  H    0.147204
     4  H    0.147204
     5  C   -0.441613
     6  H    0.147204
     7  H    0.147204
     8  H    0.147204
 Sum of Mulliken charges =  -0.00000
 Mulliken charges with hydrogens summed into heavy atoms:
               1
     1  C   -0.000000
     5  C   -0.000000
 Electronic spatial extent (au):  <R**2>=            107.4437
 Charge=             -0.0000 electrons
 Dipole moment (field-independent basis, Debye):
    X=             -0.0000    Y=              0.0000    Z=             -0.0000  Tot=              0.0000
 Quadrupole moment (field-independent basis, Debye-Ang):
   XX=            -14.5050   YY=            -14.5050   ZZ=            -15.4202
   XY=              0.0000   XZ=              0.0000   YZ=             -0.0000
 Traceless Quadrupole moment (field-independent basis, Debye-Ang):
   XX=              0.3051   YY=              0.3051   ZZ=             -0.6101
   XY=              0.0000   XZ=              0.0000   YZ=             -0.0000
 Octapole moment (field-independent basis, Debye-Ang**2):
  XXX=             -0.0000  YYY=              0.0027  ZZZ=             -0.0000  XYY=             -0.0000
  XXY=             -0.0027  XXZ=             -0.0000  XZZ=             -0.0000  YZZ=              0.0000
  YYZ=             -0.0000  XYZ=              0.0000
 Hexadecapole moment (field-independent basis, Debye-Ang**3):
 XXXX=            -27.6383 YYYY=            -27.6383 ZZZZ=            -90.8833 XXXY=             -0.0000
 XXXZ=              1.1107 YYYX=              0.0000 YYYZ=              0.0000 ZZZX=              0.0000
 ZZZY=              0.0000 XXYY=             -9.2128 XXZZ=            -18.7263 YYZZ=            -18.7263
 XXYZ=             -0.0000 YYXZ=             -1.1107 ZZXY=              0.0000
 N-N= 4.267032377464D+01 E-N=-2.693007828642D+02  KE= 7.917887395626D+01
 Symmetry A    KE= 4.081129875350D+01
 Symmetry B    KE= 3.836757520276D+01
 No NMR shielding tensors so no spin-rotation constants.
 Leave Link  601 at Tue May 14 14:05:15 2024, MaxMem=  1610612736 cpu:               0.0 elap:               0.1
 (Enter /Applications//g16/l701.exe)
 ... and contract with generalized density number  0.
 Compute integral first derivatives.
 Leave Link  701 at Tue May 14 14:05:15 2024, MaxMem=  1610612736 cpu:               0.0 elap:               0.1
 (Enter /Applications//g16/l702.exe)
 L702 exits ... SP integral derivatives will be done elsewhere.
 Leave Link  702 at Tue May 14 14:05:15 2024, MaxMem=  1610612736 cpu:               0.0 elap:               0.0
 (Enter /Applications//g16/l703.exe)
 Integral derivatives from FoFJK, PRISM(SPDF).
 Compute integral first derivatives, UseDBF=F ICtDFT=           0.
 Calling FoFJK, ICntrl=      2127 FMM=F ISym2X=1 I1Cent= 0 IOpClX= 0 NMat=1 NMatS=1 NMatT=0.
 FoFJK:  IHMeth= 1 ICntrl=    2127 DoSepK=F KAlg= 0 I1Cent=           0 FoldK=F
 IRaf=         0 NMat=       1 IRICut=       1 DoRegI=T DoRafI=F ISym2E= 1 IDoP0=0 IntGTp=1.
 FoFCou: FMM=F IPFlag=           0 FMFlag=      100000 FMFlg1=         800
         NFxFlg=           0 DoJE=F BraDBF=F KetDBF=F FulRan=T
         wScrn=  0.000000 ICntrl=      2127 IOpCl=  0 I1Cent=           0 NGrid=           0
         NMat0=    1 NMatS0=      1 NMatT0=    0 NMatD0=    1 NMtDS0=    0 NMtDT0=    0
 Petite list used in FoFCou.
 Leave Link  703 at Tue May 14 14:05:16 2024, MaxMem=  1610612736 cpu:               0.3 elap:               0.3
 (Enter /Applications//g16/l716.exe)
 Dipole        =-9.99200722D-16 4.44089210D-16-8.88178420D-16
 ***** Axes restored to original set *****
 -------------------------------------------------------------------
 Center     Atomic                   Forces (Hartrees/Bohr)
 Number     Number              X              Y              Z
 -------------------------------------------------------------------
      1        6           0.008722903    0.012335719    0.021366294
      2        1           0.003901618   -0.017314367   -0.003609753
      3        1           0.003914160    0.005522314   -0.016799513
      4        1          -0.017624734   -0.002079536   -0.003617257
      5        6          -0.008722903   -0.012335719   -0.021366294
      6        1          -0.003889765    0.017318544    0.003602503
      7        1          -0.003925999   -0.005513929    0.016799505
      8        1           0.017624720    0.002066974    0.003624515
 -------------------------------------------------------------------
 Cartesian Forces:  Max     0.021366294 RMS     0.011793000
 Leave Link  716 at Tue May 14 14:05:17 2024, MaxMem=  1610612736 cpu:               0.0 elap:               0.0
 (Enter /Applications//g16/l103.exe)

 GradGradGradGradGradGradGradGradGradGradGradGradGradGradGradGradGradGrad
 Berny optimization.
 FormGI is forming the generalized inverse of G from B-inverse, IUseBI=4.
 Internal  Forces:  Max     0.017624707 RMS     0.008635349
 Search for a local minimum.
 Step number   1 out of a maximum of   38
 All quantities printed in internal units (Hartrees-Bohrs-Radians)
 RMS Force = .86353D-02 SwitMx=.10000D-02 MixMth= 1
 Mixed Optimization -- RFO/linear search
 Second derivative matrix not updated -- first step.
 ITU=  0
     Eigenvalues ---    0.00237   0.05720   0.05720   0.05720   0.05720
     Eigenvalues ---    0.16000   0.16000   0.16000   0.16000   0.16000
     Eigenvalues ---    0.16000   0.28519   0.37230   0.37230   0.37230
     Eigenvalues ---    0.37230   0.37230   0.37230
 RFO step:  Lambda=-6.24448685D-03 EMin= 2.36825139D-03
 Linear search not attempted -- first point.
 Iteration  1 RMS(Cart)=  0.03433590 RMS(Int)=  0.00037294
 Iteration  2 RMS(Cart)=  0.00040177 RMS(Int)=  0.00021330
 Iteration  3 RMS(Cart)=  0.00000021 RMS(Int)=  0.00021330
 ITry= 1 IFail=0 DXMaxC= 7.20D-02 DCOld= 1.00D+10 DXMaxT= 3.00D-01 DXLimC= 3.00D+00 Rises=F
 ClnCor:  largest displacement from symmetrization is 1.27D-12 for atom     7.
 Variable       Old X    -DE/DX   Delta X   Delta X   Delta X     New X
                                 (Linear)    (Quad)   (Total)
    R1        2.02201   0.01762   0.00000   0.04656   0.04656   2.06857
    R2        2.02201   0.01762   0.00000   0.04656   0.04656   2.06857
    R3        2.02201   0.01762   0.00000   0.04656   0.04656   2.06857
    R4        2.91018   0.00326   0.00000   0.01118   0.01118   2.92136
    R5        2.02201   0.01762   0.00000   0.04656   0.04656   2.06857
    R6        2.02201   0.01762   0.00000   0.04656   0.04656   2.06857
    R7        2.02201   0.01762   0.00000   0.04656   0.04656   2.06857
    A1        1.91063  -0.00422   0.00000  -0.02537  -0.02569   1.88494
    A2        1.91063  -0.00422   0.00000  -0.02537  -0.02569   1.88494
    A3        1.91063   0.00422   0.00000   0.02537   0.02504   1.93567
    A4        1.91063  -0.00422   0.00000  -0.02537  -0.02569   1.88494
    A5        1.91063   0.00422   0.00000   0.02537   0.02504   1.93567
    A6        1.91063   0.00422   0.00000   0.02537   0.02504   1.93567
    A7        1.91063   0.00422   0.00000   0.02537   0.02504   1.93567
    A8        1.91063   0.00422   0.00000   0.02537   0.02504   1.93567
    A9        1.91063   0.00422   0.00000   0.02537   0.02504   1.93567
   A10        1.91063  -0.00422   0.00000  -0.02537  -0.02569   1.88494
   A11        1.91063  -0.00422   0.00000  -0.02537  -0.02569   1.88494
   A12        1.91063  -0.00422   0.00000  -0.02537  -0.02569   1.88494
    D1        3.13965   0.00000   0.00000   0.00055   0.00055   3.14021
    D2       -1.04914   0.00000   0.00000   0.00055   0.00055  -1.04858
    D3        1.04526   0.00000   0.00000   0.00055   0.00055   1.04581
    D4        1.04526   0.00000   0.00000   0.00055   0.00055   1.04581
    D5        3.13965   0.00000   0.00000   0.00055   0.00055   3.14021
    D6       -1.04914   0.00000   0.00000   0.00055   0.00055  -1.04858
    D7       -1.04914   0.00000   0.00000   0.00055   0.00055  -1.04858
    D8        1.04526   0.00000   0.00000   0.00055   0.00055   1.04581
    D9        3.13965   0.00000   0.00000   0.00055   0.00055   3.14021
         Item               Value     Threshold  Converged?
 Maximum Force            0.017625     0.000450     NO 
 RMS     Force            0.008635     0.000300     NO 
 Maximum Displacement     0.071953     0.001800     NO 
 RMS     Displacement     0.034484     0.001200     NO 
 Predicted change in Energy=-3.187259D-03
 Lowest energy point so far.  Saving SCF results.
 GradGradGradGradGradGradGradGradGradGradGradGradGradGradGradGradGradGrad

 Leave Link  103 at Tue May 14 14:05:17 2024, MaxMem=  1610612736 cpu:               0.0 elap:               0.0
 (Enter /Applications//g16/l202.exe)
                          Input orientation:                          
 ---------------------------------------------------------------------
 Center     Atomic      Atomic             Coordinates (Angstroms)
 Number     Number       Type             X           Y           Z
 ---------------------------------------------------------------------
      1          6           0        0.293132    0.898260   -0.002415
      2          1           0        0.644732   -0.138105   -0.026010
      3          1           0        0.645214    1.395676   -0.911727
      4          1           0       -0.801163    0.884815   -0.026292
      5          6           0        0.808446    1.627005    1.259820
      6          1           0        0.458002    2.663777    1.282707
      7          1           0        0.455208    1.130407    2.169131
      8          1           0        1.902740    1.639223    1.284406
 ---------------------------------------------------------------------
                    Distance matrix (angstroms):
                    1          2          3          4          5
     1  C    0.000000
     2  H    1.094638   0.000000
     3  H    1.094638   1.771152   0.000000
     4  H    1.094638   1.771152   1.771152   0.000000
     5  C    1.545916   2.189925   2.189925   2.189925   0.000000
     6  H    2.189925   3.098089   2.541391   2.542378   1.094638
     7  H    2.189925   2.542378   3.098089   2.541391   1.094638
     8  H    2.189925   2.541391   2.542378   3.098089   1.094638
                    6          7          8
     6  H    0.000000
     7  H    1.771152   0.000000
     8  H    1.771152   1.771152   0.000000
 Stoichiometry    C2H6
 Framework group  D3[C3(C.C),X(H6)]
 Deg. of freedom     4
 Full point group                 D3      NOp   6
 RotChk:  IX=0 Diff= 9.66D-14
 Largest Abelian subgroup         C2      NOp   2
 Largest concise Abelian subgroup C2      NOp   2
                         Standard orientation:                         
 ---------------------------------------------------------------------
 Center     Atomic      Atomic             Coordinates (Angstroms)
 Number     Number       Type             X           Y           Z
 ---------------------------------------------------------------------
      1          6           0        0.000000    0.000000    0.772958
      2          1           0       -0.510674    0.885930    1.163563
      3          1           0        1.022575   -0.000708    1.163563
      4          1           0       -0.511901   -0.885222    1.163563
      5          6           0       -0.000000   -0.000000   -0.772958
      6          1           0        0.511901   -0.885222   -1.163563
      7          1           0       -1.022575   -0.000708   -1.163563
      8          1           0        0.510674    0.885930   -1.163563
 ---------------------------------------------------------------------
 Rotational constants (GHZ):          79.9264107          19.6741216          19.6741216
 Leave Link  202 at Tue May 14 14:05:17 2024, MaxMem=  1610612736 cpu:               0.0 elap:               0.0
 (Enter /Applications//g16/l301.exe)
 Standard basis: 6-31G(d) (6D, 7F)
 Ernie: Thresh=  0.10000D-02 Tol=  0.10000D-05 Strict=F.
 There are    21 symmetry adapted cartesian basis functions of A   symmetry.
 There are    21 symmetry adapted cartesian basis functions of B   symmetry.
 There are    21 symmetry adapted basis functions of A   symmetry.
 There are    21 symmetry adapted basis functions of B   symmetry.
    42 basis functions,    80 primitive gaussians,    42 cartesian basis functions
     9 alpha electrons        9 beta electrons
       nuclear repulsion energy        41.9796733599 Hartrees.
 IExCor=  402 DFT=T Ex+Corr=B3LYP ExCW=0 ScaHFX=  0.200000
 ScaDFX=  0.800000  0.720000  1.000000  0.810000 ScalE2=  1.000000  1.000000
 IRadAn=      5 IRanWt=     -1 IRanGd=            0 ICorTp=0 IEmpDi=  4
 NAtoms=    8 NActive=    8 NUniq=    2 SFac= 4.00D+00 NAtFMM=   60 NAOKFM=F Big=F
 Integral buffers will be    131072 words long.
 Raffenetti 2 integral format.
 Two-electron integral symmetry is turned on.
 Leave Link  301 at Tue May 14 14:05:17 2024, MaxMem=  1610612736 cpu:               0.0 elap:               0.0
 (Enter /Applications//g16/l302.exe)
 NPDir=0 NMtPBC=     1 NCelOv=     1 NCel=       1 NClECP=     1 NCelD=      1
         NCelK=      1 NCelE2=     1 NClLst=     1 CellRange=     0.0.
 One-electron integrals computed using PRISM.
 One-electron integral symmetry used in STVInt
 NBasis=    42 RedAO= T EigKep=  8.65D-03  NBF=    21    21
 NBsUse=    42 1.00D-06 EigRej= -1.00D+00 NBFU=    21    21
 Precomputing XC quadrature grid using
 IXCGrd= 4 IRadAn=           5 IRanWt=          -1 IRanGd=           0 AccXCQ= 0.00D+00.
 Generated NRdTot=       0 NPtTot=           0 NUsed=           0 NTot=          32
 NSgBfM=    42    42    42    42    42 MxSgAt=     8 MxSgA2=     8.
 Leave Link  302 at Tue May 14 14:05:17 2024, MaxMem=  1610612736 cpu:               0.1 elap:               0.1
 (Enter /Applications//g16/l303.exe)
 DipDrv:  MaxL=1.
 Leave Link  303 at Tue May 14 14:05:17 2024, MaxMem=  1610612736 cpu:               0.0 elap:               0.0
 (Enter /Applications//g16/l401.exe)
 Initial guess from the checkpoint file:  "ethane.chk"
 B after Tr=    -0.000000    0.000000   -0.000000
         Rot=    1.000000    0.000000   -0.000000   -0.000000 Ang=   0.00 deg.
 Guess basis will be translated and rotated to current coordinates.
 JPrj=2 DoOrth=T DoCkMO=T.
 Initial guess orbital symmetries:
       Occupied  (A1) (A2) (A1) (A2) (E) (E) (A1) (E) (E)
       Virtual   (A1) (A2) (E) (E) (E) (E) (A2) (A1) (E) (E) (E)
                 (E) (A2) (E) (E) (A1) (E) (E) (A2) (A1) (A2) (E)
                 (E) (A1) (E) (E) (E) (E) (E) (E) (A2) (A1) (A2)
 The electronic state of the initial guess is 1-A1.
 Generating alternative initial guess.
 ExpMin= 1.61D-01 ExpMax= 3.05D+03 ExpMxC= 4.57D+02 IAcc=3 IRadAn=         5 AccDes= 0.00D+00
 Harris functional with IExCor=  402 and IRadAn=       5 diagonalized for initial guess.
 HarFok:  IExCor=  402 AccDes= 0.00D+00 IRadAn=         5 IDoV= 1 UseB2=F ITyADJ=14
 ICtDFT=  3500011 ScaDFX=  1.000000  1.000000  1.000000  1.000000
 FoFCou: FMM=F IPFlag=           0 FMFlag=      100000 FMFlg1=           0
         NFxFlg=           0 DoJE=T BraDBF=F KetDBF=T FulRan=T
         wScrn=  0.000000 ICntrl=       500 IOpCl=  0 I1Cent=   200000004 NGrid=           0
         NMat0=    1 NMatS0=      1 NMatT0=    0 NMatD0=    1 NMtDS0=    0 NMtDT0=    0
 Petite list used in FoFCou.
 Harris En= -79.8801393952656    
 Leave Link  401 at Tue May 14 14:05:17 2024, MaxMem=  1610612736 cpu:               0.2 elap:               0.2
 (Enter /Applications//g16/l502.exe)
 Keep R1 ints in memory in symmetry-blocked form, NReq=1275559.
 FoFCou: FMM=F IPFlag=           0 FMFlag=           0 FMFlg1=           0
         NFxFlg=           0 DoJE=F BraDBF=F KetDBF=F FulRan=T
         wScrn=  0.000000 ICntrl=       600 IOpCl=  0 I1Cent=           0 NGrid=           0
         NMat0=    1 NMatS0=    903 NMatT0=    0 NMatD0=    1 NMtDS0=    0 NMtDT0=    0
 Petite list used in FoFCou.
 Closed shell SCF:
 Using DIIS extrapolation, IDIIS=  1040.
 NGot=  1610612736 LenX=  1610401526 LenY=  1610399321
 Requested convergence on RMS density matrix=1.00D-08 within 128 cycles.
 Requested convergence on MAX density matrix=1.00D-06.
 Requested convergence on             energy=1.00D-06.
 No special actions if energy rises.
 Integral accuracy reduced to 1.0D-05 until final iterations.

 Cycle   1  Pass 0  IDiag  1:
 E= -79.8296328378173    
 DIIS: error= 3.71D-03 at cycle   1 NSaved=   1.
 NSaved= 1 IEnMin= 1 EnMin= -79.8296328378173     IErMin= 1 ErrMin= 3.71D-03
 ErrMax= 3.71D-03  0.00D+00 EMaxC= 1.00D-01 BMatC= 4.77D-04 BMatP= 4.77D-04
 IDIUse=3 WtCom= 9.63D-01 WtEn= 3.71D-02
 Coeff-Com:  0.100D+01
 Coeff-En:   0.100D+01
 Coeff:      0.100D+01
 Gap=     0.444 Goal=   None    Shift=    0.000
 GapD=    0.444 DampG=2.000 DampE=1.000 DampFc=2.0000 IDamp=-1.
 RMSDP=8.27D-04 MaxDP=7.94D-03              OVMax= 1.05D-02

 Cycle   2  Pass 0  IDiag  1:
 E= -79.8299554186922     Delta-E=       -0.000322580875 Rises=F Damp=F
 DIIS: error= 3.09D-03 at cycle   2 NSaved=   2.
 NSaved= 2 IEnMin= 2 EnMin= -79.8299554186922     IErMin= 2 ErrMin= 3.09D-03
 ErrMax= 3.09D-03  0.00D+00 EMaxC= 1.00D-01 BMatC= 3.12D-04 BMatP= 4.77D-04
 IDIUse=3 WtCom= 9.69D-01 WtEn= 3.09D-02
 Coeff-Com:  0.435D+00 0.565D+00
 Coeff-En:   0.230D+00 0.770D+00
 Coeff:      0.429D+00 0.571D+00
 Gap=     0.447 Goal=   None    Shift=    0.000
 RMSDP=4.68D-04 MaxDP=4.20D-03 DE=-3.23D-04 OVMax= 5.37D-03

 Cycle   3  Pass 0  IDiag  1:
 E= -79.8302618256185     Delta-E=       -0.000306406926 Rises=F Damp=F
 DIIS: error= 7.89D-04 at cycle   3 NSaved=   3.
 NSaved= 3 IEnMin= 3 EnMin= -79.8302618256185     IErMin= 3 ErrMin= 7.89D-04
 ErrMax= 7.89D-04  0.00D+00 EMaxC= 1.00D-01 BMatC= 2.17D-05 BMatP= 3.12D-04
 IDIUse=3 WtCom= 9.92D-01 WtEn= 7.89D-03
 Coeff-Com: -0.104D-02 0.206D+00 0.795D+00
 Coeff-En:   0.000D+00 0.000D+00 0.100D+01
 Coeff:     -0.103D-02 0.204D+00 0.797D+00
 Gap=     0.447 Goal=   None    Shift=    0.000
 RMSDP=8.41D-05 MaxDP=9.35D-04 DE=-3.06D-04 OVMax= 1.15D-03

 Cycle   4  Pass 0  IDiag  1:
 E= -79.8302835119010     Delta-E=       -0.000021686283 Rises=F Damp=F
 DIIS: error= 4.33D-05 at cycle   4 NSaved=   4.
 NSaved= 4 IEnMin= 4 EnMin= -79.8302835119010     IErMin= 4 ErrMin= 4.33D-05
 ErrMax= 4.33D-05  0.00D+00 EMaxC= 1.00D-01 BMatC= 3.02D-08 BMatP= 2.17D-05
 IDIUse=1 WtCom= 1.00D+00 WtEn= 0.00D+00
 Coeff-Com: -0.225D-02 0.281D-01 0.111D+00 0.863D+00
 Coeff:     -0.225D-02 0.281D-01 0.111D+00 0.863D+00
 Gap=     0.446 Goal=   None    Shift=    0.000
 RMSDP=5.59D-06 MaxDP=3.52D-05 DE=-2.17D-05 OVMax= 8.59D-05

 Initial convergence to 1.0D-05 achieved.  Increase integral accuracy.
 Cycle   5  Pass 1  IDiag  1:
 E= -79.8302861997322     Delta-E=       -0.000002687831 Rises=F Damp=F
 DIIS: error= 7.24D-06 at cycle   1 NSaved=   1.
 NSaved= 1 IEnMin= 1 EnMin= -79.8302861997322     IErMin= 1 ErrMin= 7.24D-06
 ErrMax= 7.24D-06  0.00D+00 EMaxC= 1.00D-01 BMatC= 1.25D-09 BMatP= 1.25D-09
 IDIUse=1 WtCom= 1.00D+00 WtEn= 0.00D+00
 Coeff-Com:  0.100D+01
 Coeff:      0.100D+01
 Gap=     0.446 Goal=   None    Shift=    0.000
 RMSDP=5.59D-06 MaxDP=3.52D-05 DE=-2.69D-06 OVMax= 1.33D-05

 Cycle   6  Pass 1  IDiag  1:
 E= -79.8302862005821     Delta-E=       -0.000000000850 Rises=F Damp=F
 DIIS: error= 3.18D-06 at cycle   2 NSaved=   2.
 NSaved= 2 IEnMin= 2 EnMin= -79.8302862005821     IErMin= 2 ErrMin= 3.18D-06
 ErrMax= 3.18D-06  0.00D+00 EMaxC= 1.00D-01 BMatC= 2.52D-10 BMatP= 1.25D-09
 IDIUse=1 WtCom= 1.00D+00 WtEn= 0.00D+00
 Coeff-Com:  0.300D+00 0.700D+00
 Coeff:      0.300D+00 0.700D+00
 Gap=     0.446 Goal=   None    Shift=    0.000
 RMSDP=3.97D-07 MaxDP=2.47D-06 DE=-8.50D-10 OVMax= 4.89D-06

 Cycle   7  Pass 1  IDiag  1:
 E= -79.8302862007908     Delta-E=       -0.000000000209 Rises=F Damp=F
 DIIS: error= 9.44D-07 at cycle   3 NSaved=   3.
 NSaved= 3 IEnMin= 3 EnMin= -79.8302862007908     IErMin= 3 ErrMin= 9.44D-07
 ErrMax= 9.44D-07  0.00D+00 EMaxC= 1.00D-01 BMatC= 2.84D-11 BMatP= 2.52D-10
 IDIUse=1 WtCom= 1.00D+00 WtEn= 0.00D+00
 Coeff-Com:  0.130D+00 0.361D+00 0.510D+00
 Coeff:      0.130D+00 0.361D+00 0.510D+00
 Gap=     0.446 Goal=   None    Shift=    0.000
 RMSDP=1.13D-07 MaxDP=1.11D-06 DE=-2.09D-10 OVMax= 1.36D-06

 Cycle   8  Pass 1  IDiag  1:
 E= -79.8302862008200     Delta-E=       -0.000000000029 Rises=F Damp=F
 DIIS: error= 6.30D-08 at cycle   4 NSaved=   4.
 NSaved= 4 IEnMin= 4 EnMin= -79.8302862008200     IErMin= 4 ErrMin= 6.30D-08
 ErrMax= 6.30D-08  0.00D+00 EMaxC= 1.00D-01 BMatC= 1.09D-13 BMatP= 2.84D-11
 IDIUse=1 WtCom= 1.00D+00 WtEn= 0.00D+00
 Coeff-Com: -0.532D-02-0.102D-02 0.524D-01 0.954D+00
 Coeff:     -0.532D-02-0.102D-02 0.524D-01 0.954D+00
 Gap=     0.446 Goal=   None    Shift=    0.000
 RMSDP=8.59D-09 MaxDP=5.90D-08 DE=-2.92D-11 OVMax= 9.76D-08

 SCF Done:  E(RB3LYP) =  -79.8302862008     A.U. after    8 cycles
            NFock=  8  Conv=0.86D-08     -V/T= 2.0110
 KE= 7.896461341245D+01 PE=-2.677611762395D+02 EE= 6.698660326637D+01
 Leave Link  502 at Tue May 14 14:05:18 2024, MaxMem=  1610612736 cpu:               0.8 elap:               0.8
 (Enter /Applications//g16/l701.exe)
 ... and contract with generalized density number  0.
 Compute integral first derivatives.
 Leave Link  701 at Tue May 14 14:05:18 2024, MaxMem=  1610612736 cpu:               0.1 elap:               0.1
 (Enter /Applications//g16/l702.exe)
 L702 exits ... SP integral derivatives will be done elsewhere.
 Leave Link  702 at Tue May 14 14:05:18 2024, MaxMem=  1610612736 cpu:               0.0 elap:               0.0
 (Enter /Applications//g16/l703.exe)
 Integral derivatives from FoFJK, PRISM(SPDF).
 Compute integral first derivatives, UseDBF=F ICtDFT=           0.
 Calling FoFJK, ICntrl=      2127 FMM=F ISym2X=1 I1Cent= 0 IOpClX= 0 NMat=1 NMatS=1 NMatT=0.
 FoFJK:  IHMeth= 1 ICntrl=    2127 DoSepK=F KAlg= 0 I1Cent=           0 FoldK=F
 IRaf=         0 NMat=       1 IRICut=       1 DoRegI=T DoRafI=F ISym2E= 1 IDoP0=0 IntGTp=1.
 FoFCou: FMM=F IPFlag=           0 FMFlag=      100000 FMFlg1=         800
         NFxFlg=           0 DoJE=F BraDBF=F KetDBF=F FulRan=T
         wScrn=  0.000000 ICntrl=      2127 IOpCl=  0 I1Cent=           0 NGrid=           0
         NMat0=    1 NMatS0=      1 NMatT0=    0 NMatD0=    1 NMtDS0=    0 NMtDT0=    0
 Petite list used in FoFCou.
 Leave Link  703 at Tue May 14 14:05:18 2024, MaxMem=  1610612736 cpu:               0.3 elap:               0.3
 (Enter /Applications//g16/l716.exe)
 Dipole        = 4.44089210D-16 6.66133815D-16-1.33226763D-15
 ***** Axes restored to original set *****
 -------------------------------------------------------------------
 Center     Atomic                   Forces (Hartrees/Bohr)
 Number     Number              X              Y              Z
 -------------------------------------------------------------------
      1        6           0.003043564    0.004304135    0.007455051
      2        1          -0.000100265   -0.000746785   -0.000584857
      3        1          -0.000092079   -0.000138890   -0.000939164
      4        1          -0.000670662   -0.000334767   -0.000589865
      5        6          -0.003043564   -0.004304135   -0.007455051
      6        1           0.000092725    0.000744128    0.000589469
      7        1           0.000099610    0.000133555    0.000939170
      8        1           0.000670671    0.000342758    0.000585248
 -------------------------------------------------------------------
 Cartesian Forces:  Max     0.007455051 RMS     0.002678557
 Leave Link  716 at Tue May 14 14:05:18 2024, MaxMem=  1610612736 cpu:               0.0 elap:               0.0
 (Enter /Applications//g16/l103.exe)

 GradGradGradGradGradGradGradGradGradGradGradGradGradGradGradGradGradGrad
 Berny optimization.
 Using GEDIIS/GDIIS optimizer.
 FormGI is forming the generalized inverse of G from B-inverse, IUseBI=4.
 Internal  Forces:  Max     0.006541562 RMS     0.001349053
 Search for a local minimum.
 Step number   2 out of a maximum of   38
 All quantities printed in internal units (Hartrees-Bohrs-Radians)
 RMS Force = .13491D-02 SwitMx=.10000D-02 MixMth= 1
 Mixed Optimization -- RFO/linear search
 Update second derivatives using D2CorX and points    1    2
 DE= -3.22D-03 DEPred=-3.19D-03 R= 1.01D+00
 TightC=F SS=  1.41D+00  RLast= 1.44D-01 DXNew= 5.0454D-01 4.3326D-01
 Trust test= 1.01D+00 RLast= 1.44D-01 DXMaxT set to 4.33D-01
 ITU=  1  0
 Use linear search instead of GDIIS.
     Eigenvalues ---    0.00237   0.05454   0.05454   0.05454   0.05454
     Eigenvalues ---    0.15088   0.16000   0.16000   0.16000   0.16000
     Eigenvalues ---    0.16000   0.27845   0.37230   0.37230   0.37230
     Eigenvalues ---    0.37230   0.37230   0.39168
 RFO step:  Lambda=-1.95450501D-04 EMin= 2.36825261D-03
 Quartic linear search produced a step of  0.05818.
 Iteration  1 RMS(Cart)=  0.00328429 RMS(Int)=  0.00002362
 Iteration  2 RMS(Cart)=  0.00001431 RMS(Int)=  0.00002022
 Iteration  3 RMS(Cart)=  0.00000000 RMS(Int)=  0.00002022
 ITry= 1 IFail=0 DXMaxC= 9.75D-03 DCOld= 1.00D+10 DXMaxT= 4.33D-01 DXLimC= 3.00D+00 Rises=F
 ClnCor:  largest displacement from symmetrization is 9.37D-13 for atom     3.
 Variable       Old X    -DE/DX   Delta X   Delta X   Delta X     New X
                                 (Linear)    (Quad)   (Total)
    R1        2.06857   0.00069   0.00271   0.00076   0.00347   2.07204
    R2        2.06857   0.00069   0.00271   0.00076   0.00347   2.07204
    R3        2.06857   0.00069   0.00271   0.00076   0.00347   2.07204
    R4        2.92136  -0.00654   0.00065  -0.02453  -0.02388   2.89747
    R5        2.06857   0.00069   0.00271   0.00076   0.00347   2.07204
    R6        2.06857   0.00069   0.00271   0.00076   0.00347   2.07204
    R7        2.06857   0.00069   0.00271   0.00076   0.00347   2.07204
    A1        1.88494  -0.00068  -0.00149  -0.00391  -0.00544   1.87950
    A2        1.88494  -0.00068  -0.00149  -0.00391  -0.00544   1.87950
    A3        1.93567   0.00065   0.00146   0.00372   0.00515   1.94082
    A4        1.88494  -0.00068  -0.00149  -0.00391  -0.00544   1.87950
    A5        1.93567   0.00065   0.00146   0.00372   0.00515   1.94082
    A6        1.93567   0.00065   0.00146   0.00372   0.00515   1.94082
    A7        1.93567   0.00065   0.00146   0.00372   0.00515   1.94082
    A8        1.93567   0.00065   0.00146   0.00372   0.00515   1.94082
    A9        1.93567   0.00065   0.00146   0.00372   0.00515   1.94082
   A10        1.88494  -0.00068  -0.00149  -0.00391  -0.00544   1.87950
   A11        1.88494  -0.00068  -0.00149  -0.00391  -0.00544   1.87950
   A12        1.88494  -0.00068  -0.00149  -0.00391  -0.00544   1.87950
    D1        3.14021   0.00000   0.00003   0.00144   0.00148  -3.14150
    D2       -1.04858   0.00000   0.00003   0.00144   0.00148  -1.04711
    D3        1.04581   0.00000   0.00003   0.00144   0.00148   1.04729
    D4        1.04581   0.00000   0.00003   0.00144   0.00148   1.04729
    D5        3.14021   0.00000   0.00003   0.00144   0.00148  -3.14150
    D6       -1.04858   0.00000   0.00003   0.00144   0.00148  -1.04711
    D7       -1.04858   0.00000   0.00003   0.00144   0.00148  -1.04711
    D8        1.04581   0.00000   0.00003   0.00144   0.00148   1.04729
    D9        3.14021   0.00000   0.00003   0.00144   0.00148  -3.14150
         Item               Value     Threshold  Converged?
 Maximum Force            0.006542     0.000450     NO 
 RMS     Force            0.001349     0.000300     NO 
 Maximum Displacement     0.009750     0.001800     NO 
 RMS     Displacement     0.003289     0.001200     NO 
 Predicted change in Energy=-1.052934D-04
 Lowest energy point so far.  Saving SCF results.
 GradGradGradGradGradGradGradGradGradGradGradGradGradGradGradGradGradGrad

 Leave Link  103 at Tue May 14 14:05:18 2024, MaxMem=  1610612736 cpu:               0.0 elap:               0.0
 (Enter /Applications//g16/l202.exe)
                          Input orientation:                          
 ---------------------------------------------------------------------
 Center     Atomic      Atomic             Coordinates (Angstroms)
 Number     Number       Type             X           Y           Z
 ---------------------------------------------------------------------
      1          6           0        0.295238    0.901238    0.002745
      2          1           0        0.644101   -0.137876   -0.025399
      3          1           0        0.645815    1.395218   -0.911223
      4          1           0       -0.800737    0.885603   -0.026437
      5          6           0        0.806339    1.624026    1.254660
      6          1           0        0.457400    2.663113    1.282851
      7          1           0        0.455839    1.129992    2.168628
      8          1           0        1.902314    1.639743    1.283795
 ---------------------------------------------------------------------
                    Distance matrix (angstroms):
                    1          2          3          4          5
     1  C    0.000000
     2  H    1.096475   0.000000
     3  H    1.096475   1.770612   0.000000
     4  H    1.096475   1.770612   1.770612   0.000000
     5  C    1.533277   2.183844   2.183844   2.183844   0.000000
     6  H    2.183844   3.097082   2.541067   2.541001   1.096475
     7  H    2.183844   2.541001   3.097082   2.541067   1.096475
     8  H    2.183844   2.541067   2.541001   3.097082   1.096475
                    6          7          8
     6  H    0.000000
     7  H    1.770612   0.000000
     8  H    1.770612   1.770612   0.000000
 Stoichiometry    C2H6
 Framework group  D3[C3(C.C),X(H6)]
 Deg. of freedom     4
 Full point group                 D3      NOp   6
 RotChk:  IX=0 Diff= 1.41D+00
 Largest Abelian subgroup         C2      NOp   2
 Largest concise Abelian subgroup C2      NOp   2
                         Standard orientation:                         
 ---------------------------------------------------------------------
 Center     Atomic      Atomic             Coordinates (Angstroms)
 Number     Number       Type             X           Y           Z
 ---------------------------------------------------------------------
      1          6           0       -0.000000    0.000000    0.766639
      2          1           0        0.511091    0.885329    1.163167
      3          1           0        0.511172   -0.885282    1.163167
      4          1           0       -1.022263   -0.000047    1.163167
      5          6           0        0.000000    0.000000   -0.766639
      6          1           0       -0.511172   -0.885282   -1.163167
      7          1           0       -0.511091    0.885329   -1.163167
      8          1           0        1.022263   -0.000047   -1.163167
 ---------------------------------------------------------------------
 Rotational constants (GHZ):          79.9752035          19.8604510          19.8604510
 Leave Link  202 at Tue May 14 14:05:18 2024, MaxMem=  1610612736 cpu:               0.0 elap:               0.0
 (Enter /Applications//g16/l301.exe)
 Standard basis: 6-31G(d) (6D, 7F)
 Ernie: Thresh=  0.10000D-02 Tol=  0.10000D-05 Strict=F.
 There are    21 symmetry adapted cartesian basis functions of A   symmetry.
 There are    21 symmetry adapted cartesian basis functions of B   symmetry.
 There are    21 symmetry adapted basis functions of A   symmetry.
 There are    21 symmetry adapted basis functions of B   symmetry.
    42 basis functions,    80 primitive gaussians,    42 cartesian basis functions
     9 alpha electrons        9 beta electrons
       nuclear repulsion energy        42.0774550533 Hartrees.
 IExCor=  402 DFT=T Ex+Corr=B3LYP ExCW=0 ScaHFX=  0.200000
 ScaDFX=  0.800000  0.720000  1.000000  0.810000 ScalE2=  1.000000  1.000000
 IRadAn=      5 IRanWt=     -1 IRanGd=            0 ICorTp=0 IEmpDi=  4
 NAtoms=    8 NActive=    8 NUniq=    2 SFac= 4.00D+00 NAtFMM=   60 NAOKFM=F Big=F
 Integral buffers will be    131072 words long.
 Raffenetti 2 integral format.
 Two-electron integral symmetry is turned on.
 Leave Link  301 at Tue May 14 14:05:18 2024, MaxMem=  1610612736 cpu:               0.0 elap:               0.0
 (Enter /Applications//g16/l302.exe)
 NPDir=0 NMtPBC=     1 NCelOv=     1 NCel=       1 NClECP=     1 NCelD=      1
         NCelK=      1 NCelE2=     1 NClLst=     1 CellRange=     0.0.
 One-electron integrals computed using PRISM.
 One-electron integral symmetry used in STVInt
 NBasis=    42 RedAO= T EigKep=  8.51D-03  NBF=    21    21
 NBsUse=    42 1.00D-06 EigRej= -1.00D+00 NBFU=    21    21
 Precomputing XC quadrature grid using
 IXCGrd= 4 IRadAn=           5 IRanWt=          -1 IRanGd=           0 AccXCQ= 0.00D+00.
 Generated NRdTot=       0 NPtTot=           0 NUsed=           0 NTot=          32
 NSgBfM=    42    42    42    42    42 MxSgAt=     8 MxSgA2=     8.
 Leave Link  302 at Tue May 14 14:05:18 2024, MaxMem=  1610612736 cpu:               0.1 elap:               0.1
 (Enter /Applications//g16/l303.exe)
 DipDrv:  MaxL=1.
 Leave Link  303 at Tue May 14 14:05:18 2024, MaxMem=  1610612736 cpu:               0.0 elap:               0.0
 (Enter /Applications//g16/l401.exe)
 Initial guess from the checkpoint file:  "ethane.chk"
 B after Tr=    -0.000000   -0.000000    0.000000
         Rot=    0.866025    0.000000    0.000000    0.500000 Ang=  60.00 deg.
 Guess basis will be translated and rotated to current coordinates.
 JPrj=2 DoOrth=T DoCkMO=T.
 Initial guess orbital symmetries:
       Occupied  (A1) (A2) (A1) (A2) (E) (E) (A1) (E) (E)
       Virtual   (A1) (A2) (E) (E) (E) (E) (A2) (A1) (E) (E) (E)
                 (E) (A2) (E) (E) (A1) (E) (E) (A2) (A1) (A2) (E)
                 (E) (A1) (E) (E) (E) (E) (E) (E) (A2) (A1) (A2)
 The electronic state of the initial guess is 1-A1.
 Leave Link  401 at Tue May 14 14:05:19 2024, MaxMem=  1610612736 cpu:               0.1 elap:               0.0
 (Enter /Applications//g16/l502.exe)
 Keep R1 ints in memory in symmetry-blocked form, NReq=1275559.
 FoFCou: FMM=F IPFlag=           0 FMFlag=           0 FMFlg1=           0
         NFxFlg=           0 DoJE=F BraDBF=F KetDBF=F FulRan=T
         wScrn=  0.000000 ICntrl=       600 IOpCl=  0 I1Cent=           0 NGrid=           0
         NMat0=    1 NMatS0=    903 NMatT0=    0 NMatD0=    1 NMtDS0=    0 NMtDT0=    0
 Petite list used in FoFCou.
 Closed shell SCF:
 Using DIIS extrapolation, IDIIS=  1040.
 NGot=  1610612736 LenX=  1610401526 LenY=  1610399321
 Requested convergence on RMS density matrix=1.00D-08 within 128 cycles.
 Requested convergence on MAX density matrix=1.00D-06.
 Requested convergence on             energy=1.00D-06.
 No special actions if energy rises.
 An orbital has undefined symmetry, so N**3 symmetry is turned off.

 Cycle   1  Pass 1  IDiag  1:
 E= -79.8303692018748    
 DIIS: error= 9.18D-04 at cycle   1 NSaved=   1.
 NSaved= 1 IEnMin= 1 EnMin= -79.8303692018748     IErMin= 1 ErrMin= 9.18D-04
 ErrMax= 9.18D-04  0.00D+00 EMaxC= 1.00D-01 BMatC= 2.21D-05 BMatP= 2.21D-05
 IDIUse=3 WtCom= 9.91D-01 WtEn= 9.18D-03
 Coeff-Com:  0.100D+01
 Coeff-En:   0.100D+01
 Coeff:      0.100D+01
 Gap=     0.445 Goal=   None    Shift=    0.000
 RMSDP=1.80D-04 MaxDP=1.48D-03              OVMax= 2.77D-03

 Cycle   2  Pass 1  IDiag  1:
 E= -79.8304120281242     Delta-E=       -0.000042826249 Rises=F Damp=F
 DIIS: error= 1.32D-04 at cycle   2 NSaved=   2.
 NSaved= 2 IEnMin= 2 EnMin= -79.8304120281242     IErMin= 2 ErrMin= 1.32D-04
 ErrMax= 1.32D-04  0.00D+00 EMaxC= 1.00D-01 BMatC= 3.15D-07 BMatP= 2.21D-05
 IDIUse=3 WtCom= 9.99D-01 WtEn= 1.32D-03
 Coeff-Com: -0.304D-01 0.103D+01
 Coeff-En:   0.000D+00 0.100D+01
 Coeff:     -0.304D-01 0.103D+01
 Gap=     0.445 Goal=   None    Shift=    0.000
 RMSDP=2.14D-05 MaxDP=2.00D-04 DE=-4.28D-05 OVMax= 2.49D-04

 Cycle   3  Pass 1  IDiag  1:
 E= -79.8304122768610     Delta-E=       -0.000000248737 Rises=F Damp=F
 DIIS: error= 6.70D-05 at cycle   3 NSaved=   3.
 NSaved= 3 IEnMin= 3 EnMin= -79.8304122768610     IErMin= 3 ErrMin= 6.70D-05
 ErrMax= 6.70D-05  0.00D+00 EMaxC= 1.00D-01 BMatC= 1.25D-07 BMatP= 3.15D-07
 IDIUse=1 WtCom= 1.00D+00 WtEn= 0.00D+00
 Coeff-Com: -0.172D-01 0.389D+00 0.628D+00
 Coeff:     -0.172D-01 0.389D+00 0.628D+00
 Gap=     0.445 Goal=   None    Shift=    0.000
 RMSDP=9.98D-06 MaxDP=9.27D-05 DE=-2.49D-07 OVMax= 1.19D-04

 Cycle   4  Pass 1  IDiag  1:
 E= -79.8304123925061     Delta-E=       -0.000000115645 Rises=F Damp=F
 DIIS: error= 2.02D-05 at cycle   4 NSaved=   4.
 NSaved= 4 IEnMin= 4 EnMin= -79.8304123925061     IErMin= 4 ErrMin= 2.02D-05
 ErrMax= 2.02D-05  0.00D+00 EMaxC= 1.00D-01 BMatC= 1.64D-08 BMatP= 1.25D-07
 IDIUse=1 WtCom= 1.00D+00 WtEn= 0.00D+00
 Coeff-Com: -0.572D-02 0.904D-01 0.289D+00 0.626D+00
 Coeff:     -0.572D-02 0.904D-01 0.289D+00 0.626D+00
 Gap=     0.445 Goal=   None    Shift=    0.000
 RMSDP=2.69D-06 MaxDP=2.40D-05 DE=-1.16D-07 OVMax= 3.43D-05

 Cycle   5  Pass 1  IDiag  1:
 E= -79.8304124087998     Delta-E=       -0.000000016294 Rises=F Damp=F
 DIIS: error= 1.94D-06 at cycle   5 NSaved=   5.
 NSaved= 5 IEnMin= 5 EnMin= -79.8304124087998     IErMin= 5 ErrMin= 1.94D-06
 ErrMax= 1.94D-06  0.00D+00 EMaxC= 1.00D-01 BMatC= 1.23D-10 BMatP= 1.64D-08
 IDIUse=1 WtCom= 1.00D+00 WtEn= 0.00D+00
 Coeff-Com: -0.471D-03 0.129D-02 0.306D-01 0.131D+00 0.838D+00
 Coeff:     -0.471D-03 0.129D-02 0.306D-01 0.131D+00 0.838D+00
 Gap=     0.445 Goal=   None    Shift=    0.000
 RMSDP=2.27D-07 MaxDP=1.83D-06 DE=-1.63D-08 OVMax= 2.82D-06

 Cycle   6  Pass 1  IDiag  1:
 E= -79.8304124089195     Delta-E=       -0.000000000120 Rises=F Damp=F
 DIIS: error= 4.84D-08 at cycle   6 NSaved=   6.
 NSaved= 6 IEnMin= 6 EnMin= -79.8304124089195     IErMin= 6 ErrMin= 4.84D-08
 ErrMax= 4.84D-08  0.00D+00 EMaxC= 1.00D-01 BMatC= 8.22D-14 BMatP= 1.23D-10
 IDIUse=1 WtCom= 1.00D+00 WtEn= 0.00D+00
 Coeff-Com:  0.160D-04-0.289D-03-0.433D-03-0.258D-02 0.149D-02 0.100D+01
 Coeff:      0.160D-04-0.289D-03-0.433D-03-0.258D-02 0.149D-02 0.100D+01
 Gap=     0.445 Goal=   None    Shift=    0.000
 RMSDP=9.41D-09 MaxDP=6.04D-08 DE=-1.20D-10 OVMax= 1.09D-07

 SCF Done:  E(RB3LYP) =  -79.8304124089     A.U. after    6 cycles
            NFock=  6  Conv=0.94D-08     -V/T= 2.0109
 KE= 7.896901468170D+01 PE=-2.679573952944D+02 EE= 6.708051315041D+01
 Leave Link  502 at Tue May 14 14:05:19 2024, MaxMem=  1610612736 cpu:               0.8 elap:               0.9
 (Enter /Applications//g16/l701.exe)
 ... and contract with generalized density number  0.
 Compute integral first derivatives.
 Leave Link  701 at Tue May 14 14:05:19 2024, MaxMem=  1610612736 cpu:               0.1 elap:               0.1
 (Enter /Applications//g16/l702.exe)
 L702 exits ... SP integral derivatives will be done elsewhere.
 Leave Link  702 at Tue May 14 14:05:19 2024, MaxMem=  1610612736 cpu:               0.0 elap:               0.0
 (Enter /Applications//g16/l703.exe)
 Integral derivatives from FoFJK, PRISM(SPDF).
 Compute integral first derivatives, UseDBF=F ICtDFT=           0.
 Calling FoFJK, ICntrl=      2127 FMM=F ISym2X=1 I1Cent= 0 IOpClX= 0 NMat=1 NMatS=1 NMatT=0.
 FoFJK:  IHMeth= 1 ICntrl=    2127 DoSepK=F KAlg= 0 I1Cent=           0 FoldK=F
 IRaf=         0 NMat=       1 IRICut=       1 DoRegI=T DoRafI=F ISym2E= 1 IDoP0=0 IntGTp=1.
 FoFCou: FMM=F IPFlag=           0 FMFlag=      100000 FMFlg1=         800
         NFxFlg=           0 DoJE=F BraDBF=F KetDBF=F FulRan=T
         wScrn=  0.000000 ICntrl=      2127 IOpCl=  0 I1Cent=           0 NGrid=           0
         NMat0=    1 NMatS0=      1 NMatT0=    0 NMatD0=    1 NMtDS0=    0 NMtDT0=    0
 Petite list used in FoFCou.
 Leave Link  703 at Tue May 14 14:05:20 2024, MaxMem=  1610612736 cpu:               0.3 elap:               0.3
 (Enter /Applications//g16/l716.exe)
 Dipole        =-1.77635684D-15-1.33226763D-15 1.77635684D-15
 ***** Axes restored to original set *****
 -------------------------------------------------------------------
 Center     Atomic                   Forces (Hartrees/Bohr)
 Number     Number              X              Y              Z
 -------------------------------------------------------------------
      1        6           0.000526789    0.000744973    0.001290343
      2        1          -0.000238550    0.000222345   -0.000262613
      3        1          -0.000239722   -0.000337773    0.000061247
      4        1           0.000289142   -0.000152035   -0.000261899
      5        6          -0.000526789   -0.000744973   -0.001290343
      6        1           0.000239124   -0.000222143    0.000262262
      7        1           0.000239149    0.000338180   -0.000061248
      8        1          -0.000289142    0.000151427    0.000262251
 -------------------------------------------------------------------
 Cartesian Forces:  Max     0.001290343 RMS     0.000501946
 Leave Link  716 at Tue May 14 14:05:20 2024, MaxMem=  1610612736 cpu:               0.0 elap:               0.0
 (Enter /Applications//g16/l103.exe)

 GradGradGradGradGradGradGradGradGradGradGradGradGradGradGradGradGradGrad
 Berny optimization.
 Using GEDIIS/GDIIS optimizer.
 FormGI is forming the generalized inverse of G from B-inverse, IUseBI=4.
 Internal  Forces:  Max     0.001012960 RMS     0.000308828
 Search for a local minimum.
 Step number   3 out of a maximum of   38
 All quantities printed in internal units (Hartrees-Bohrs-Radians)
 RMS Force = .30883D-03 SwitMx=.10000D-02 MixMth= 2
 Mixed Optimization -- En-DIIS/RFO-DIIS
 Update second derivatives using D2CorX and points    1    2    3
 DE= -1.26D-04 DEPred=-1.05D-04 R= 1.20D+00
 TightC=F SS=  1.41D+00  RLast= 3.16D-02 DXNew= 7.2865D-01 9.4817D-02
 Trust test= 1.20D+00 RLast= 3.16D-02 DXMaxT set to 4.33D-01
 ITU=  1  1  0
 Use linear search instead of GDIIS.
     Eigenvalues ---    0.00237   0.05400   0.05400   0.05400   0.05400
     Eigenvalues ---    0.11818   0.16000   0.16000   0.16000   0.16000
     Eigenvalues ---    0.16000   0.28460   0.37230   0.37230   0.37230
     Eigenvalues ---    0.37230   0.37230   0.40426
 RFO step:  Lambda=-7.89591424D-06 EMin= 2.36830441D-03
 Quartic linear search produced a step of  0.21343.
 Iteration  1 RMS(Cart)=  0.00175371 RMS(Int)=  0.00000557
 Iteration  2 RMS(Cart)=  0.00000475 RMS(Int)=  0.00000400
 Iteration  3 RMS(Cart)=  0.00000000 RMS(Int)=  0.00000400
 ITry= 1 IFail=0 DXMaxC= 3.10D-03 DCOld= 1.00D+10 DXMaxT= 4.33D-01 DXLimC= 3.00D+00 Rises=F
 ClnCor:  largest displacement from symmetrization is 4.79D-13 for atom     8.
 Variable       Old X    -DE/DX   Delta X   Delta X   Delta X     New X
                                 (Linear)    (Quad)   (Total)
    R1        2.07204  -0.00028   0.00074  -0.00113  -0.00039   2.07165
    R2        2.07204  -0.00028   0.00074  -0.00113  -0.00039   2.07165
    R3        2.07204  -0.00028   0.00074  -0.00113  -0.00039   2.07165
    R4        2.89747  -0.00101  -0.00510   0.00006  -0.00504   2.89244
    R5        2.07204  -0.00028   0.00074  -0.00113  -0.00039   2.07165
    R6        2.07204  -0.00028   0.00074  -0.00113  -0.00039   2.07165
    R7        2.07204  -0.00028   0.00074  -0.00113  -0.00039   2.07165
    A1        1.87950  -0.00032  -0.00116  -0.00168  -0.00284   1.87666
    A2        1.87950  -0.00032  -0.00116  -0.00168  -0.00284   1.87666
    A3        1.94082   0.00030   0.00110   0.00158   0.00267   1.94350
    A4        1.87950  -0.00032  -0.00116  -0.00168  -0.00284   1.87666
    A5        1.94082   0.00030   0.00110   0.00158   0.00267   1.94350
    A6        1.94082   0.00030   0.00110   0.00158   0.00267   1.94350
    A7        1.94082   0.00030   0.00110   0.00158   0.00267   1.94350
    A8        1.94082   0.00030   0.00110   0.00158   0.00267   1.94350
    A9        1.94082   0.00030   0.00110   0.00158   0.00267   1.94350
   A10        1.87950  -0.00032  -0.00116  -0.00168  -0.00284   1.87666
   A11        1.87950  -0.00032  -0.00116  -0.00168  -0.00284   1.87666
   A12        1.87950  -0.00032  -0.00116  -0.00168  -0.00284   1.87666
    D1       -3.14150  -0.00000   0.00032  -0.00093  -0.00061   3.14107
    D2       -1.04711  -0.00000   0.00032  -0.00093  -0.00061  -1.04772
    D3        1.04729  -0.00000   0.00032  -0.00093  -0.00061   1.04668
    D4        1.04729  -0.00000   0.00032  -0.00093  -0.00061   1.04668
    D5       -3.14150  -0.00000   0.00032  -0.00093  -0.00061   3.14107
    D6       -1.04711  -0.00000   0.00032  -0.00093  -0.00061  -1.04772
    D7       -1.04711  -0.00000   0.00032  -0.00093  -0.00061  -1.04772
    D8        1.04729  -0.00000   0.00032  -0.00093  -0.00061   1.04668
    D9       -3.14150  -0.00000   0.00032  -0.00093  -0.00061   3.14107
         Item               Value     Threshold  Converged?
 Maximum Force            0.001013     0.000450     NO 
 RMS     Force            0.000309     0.000300     NO 
 Maximum Displacement     0.003102     0.001800     NO 
 RMS     Displacement     0.001753     0.001200     NO 
 Predicted change in Energy=-8.194173D-06
 Lowest energy point so far.  Saving SCF results.
 GradGradGradGradGradGradGradGradGradGradGradGradGradGradGradGradGradGrad

 Leave Link  103 at Tue May 14 14:05:20 2024, MaxMem=  1610612736 cpu:               0.0 elap:               0.0
 (Enter /Applications//g16/l202.exe)
                          Input orientation:                          
 ---------------------------------------------------------------------
 Center     Atomic      Atomic             Coordinates (Angstroms)
 Number     Number       Type             X           Y           Z
 ---------------------------------------------------------------------
      1          6           0        0.295682    0.901867    0.003833
      2          1           0        0.643325   -0.137363   -0.026999
      3          1           0        0.644525    1.393939   -0.911579
      4          1           0       -0.799994    0.884497   -0.027722
      5          6           0        0.805895    1.623397    1.253572
      6          1           0        0.458688    2.662781    1.284138
      7          1           0        0.456617    1.131633    2.168983
      8          1           0        1.901571    1.640305    1.285394
 ---------------------------------------------------------------------
                    Distance matrix (angstroms):
                    1          2          3          4          5
     1  C    0.000000
     2  H    1.096269   0.000000
     3  H    1.096269   1.768437   0.000000
     4  H    1.096269   1.768437   1.768437   0.000000
     5  C    1.530611   2.183247   2.183247   2.183247   0.000000
     6  H    2.183247   3.097414   2.542767   2.543138   1.096269
     7  H    2.183247   2.543138   3.097414   2.542767   1.096269
     8  H    2.183247   2.542767   2.543138   3.097414   1.096269
                    6          7          8
     6  H    0.000000
     7  H    1.768437   0.000000
     8  H    1.768437   1.768437   0.000000
 Stoichiometry    C2H6
 Framework group  D3[C3(C.C),X(H6)]
 Deg. of freedom     4
 Full point group                 D3      NOp   6
 RotChk:  IX=0 Diff= 1.41D+00
 Largest Abelian subgroup         C2      NOp   2
 Largest concise Abelian subgroup C2      NOp   2
                         Standard orientation:                         
 ---------------------------------------------------------------------
 Center     Atomic      Atomic             Coordinates (Angstroms)
 Number     Number       Type             X           Y           Z
 ---------------------------------------------------------------------
      1          6           0       -0.000000    0.000000    0.765306
      2          1           0       -0.510273    0.884352    1.164490
      3          1           0        1.021008   -0.000267    1.164490
      4          1           0       -0.510735   -0.884085    1.164490
      5          6           0        0.000000    0.000000   -0.765306
      6          1           0        0.510735   -0.884085   -1.164490
      7          1           0       -1.021008   -0.000267   -1.164490
      8          1           0        0.510273    0.884352   -1.164490
 ---------------------------------------------------------------------
 Rotational constants (GHZ):          80.1720198          19.8902656          19.8902656
 Leave Link  202 at Tue May 14 14:05:20 2024, MaxMem=  1610612736 cpu:               0.0 elap:               0.0
 (Enter /Applications//g16/l301.exe)
 Standard basis: 6-31G(d) (6D, 7F)
 Ernie: Thresh=  0.10000D-02 Tol=  0.10000D-05 Strict=F.
 There are    21 symmetry adapted cartesian basis functions of A   symmetry.
 There are    21 symmetry adapted cartesian basis functions of B   symmetry.
 There are    21 symmetry adapted basis functions of A   symmetry.
 There are    21 symmetry adapted basis functions of B   symmetry.
    42 basis functions,    80 primitive gaussians,    42 cartesian basis functions
     9 alpha electrons        9 beta electrons
       nuclear repulsion energy        42.1059523799 Hartrees.
 IExCor=  402 DFT=T Ex+Corr=B3LYP ExCW=0 ScaHFX=  0.200000
 ScaDFX=  0.800000  0.720000  1.000000  0.810000 ScalE2=  1.000000  1.000000
 IRadAn=      5 IRanWt=     -1 IRanGd=            0 ICorTp=0 IEmpDi=  4
 NAtoms=    8 NActive=    8 NUniq=    2 SFac= 4.00D+00 NAtFMM=   60 NAOKFM=F Big=F
 Integral buffers will be    131072 words long.
 Raffenetti 2 integral format.
 Two-electron integral symmetry is turned on.
 Leave Link  301 at Tue May 14 14:05:20 2024, MaxMem=  1610612736 cpu:               0.0 elap:               0.0
 (Enter /Applications//g16/l302.exe)
 NPDir=0 NMtPBC=     1 NCelOv=     1 NCel=       1 NClECP=     1 NCelD=      1
         NCelK=      1 NCelE2=     1 NClLst=     1 CellRange=     0.0.
 One-electron integrals computed using PRISM.
 One-electron integral symmetry used in STVInt
 NBasis=    42 RedAO= T EigKep=  8.49D-03  NBF=    21    21
 NBsUse=    42 1.00D-06 EigRej= -1.00D+00 NBFU=    21    21
 Precomputing XC quadrature grid using
 IXCGrd= 4 IRadAn=           5 IRanWt=          -1 IRanGd=           0 AccXCQ= 0.00D+00.
 Generated NRdTot=       0 NPtTot=           0 NUsed=           0 NTot=          32
 NSgBfM=    42    42    42    42    42 MxSgAt=     8 MxSgA2=     8.
 Leave Link  302 at Tue May 14 14:05:20 2024, MaxMem=  1610612736 cpu:               0.1 elap:               0.1
 (Enter /Applications//g16/l303.exe)
 DipDrv:  MaxL=1.
 Leave Link  303 at Tue May 14 14:05:20 2024, MaxMem=  1610612736 cpu:               0.0 elap:               0.0
 (Enter /Applications//g16/l401.exe)
 Initial guess from the checkpoint file:  "ethane.chk"
 B after Tr=     0.000000    0.000000   -0.000000
         Rot=    0.866025   -0.000000   -0.000000   -0.500000 Ang= -60.00 deg.
 Guess basis will be translated and rotated to current coordinates.
 JPrj=2 DoOrth=T DoCkMO=T.
 Initial guess orbital symmetries:
       Occupied  (A1) (A2) (A1) (A2) (E) (E) (A1) (E) (E)
       Virtual   (A1) (A2) (E) (E) (E) (E) (A2) (A1) (E) (E) (E)
                 (E) (A2) (E) (E) (A1) (E) (E) (A2) (A1) (A2) (E)
                 (E) (A1) (E) (E) (E) (E) (E) (E) (A2) (A1) (A2)
 The electronic state of the initial guess is 1-A1.
 Leave Link  401 at Tue May 14 14:05:20 2024, MaxMem=  1610612736 cpu:               0.0 elap:               0.0
 (Enter /Applications//g16/l502.exe)
 Keep R1 ints in memory in symmetry-blocked form, NReq=1275559.
 FoFCou: FMM=F IPFlag=           0 FMFlag=           0 FMFlg1=           0
         NFxFlg=           0 DoJE=F BraDBF=F KetDBF=F FulRan=T
         wScrn=  0.000000 ICntrl=       600 IOpCl=  0 I1Cent=           0 NGrid=           0
         NMat0=    1 NMatS0=    903 NMatT0=    0 NMatD0=    1 NMtDS0=    0 NMtDT0=    0
 Petite list used in FoFCou.
 Closed shell SCF:
 Using DIIS extrapolation, IDIIS=  1040.
 NGot=  1610612736 LenX=  1610401526 LenY=  1610399321
 Requested convergence on RMS density matrix=1.00D-08 within 128 cycles.
 Requested convergence on MAX density matrix=1.00D-06.
 Requested convergence on             energy=1.00D-06.
 No special actions if energy rises.
 An orbital has undefined symmetry, so N**3 symmetry is turned off.

 Cycle   1  Pass 1  IDiag  1:
 E= -79.8304173248238    
 DIIS: error= 3.52D-04 at cycle   1 NSaved=   1.
 NSaved= 1 IEnMin= 1 EnMin= -79.8304173248238     IErMin= 1 ErrMin= 3.52D-04
 ErrMax= 3.52D-04  0.00D+00 EMaxC= 1.00D-01 BMatC= 2.11D-06 BMatP= 2.11D-06
 IDIUse=3 WtCom= 9.96D-01 WtEn= 3.52D-03
 Coeff-Com:  0.100D+01
 Coeff-En:   0.100D+01
 Coeff:      0.100D+01
 Gap=     0.445 Goal=   None    Shift=    0.000
 RMSDP=4.81D-05 MaxDP=4.30D-04              OVMax= 7.59D-04

 Cycle   2  Pass 1  IDiag  1:
 E= -79.8304206299950     Delta-E=       -0.000003305171 Rises=F Damp=F
 DIIS: error= 6.29D-05 at cycle   2 NSaved=   2.
 NSaved= 2 IEnMin= 2 EnMin= -79.8304206299950     IErMin= 2 ErrMin= 6.29D-05
 ErrMax= 6.29D-05  0.00D+00 EMaxC= 1.00D-01 BMatC= 1.03D-07 BMatP= 2.11D-06
 IDIUse=1 WtCom= 1.00D+00 WtEn= 0.00D+00
 Coeff-Com:  0.672D-01 0.933D+00
 Coeff:      0.672D-01 0.933D+00
 Gap=     0.445 Goal=   None    Shift=    0.000
 RMSDP=1.34D-05 MaxDP=1.23D-04 DE=-3.31D-06 OVMax= 1.62D-04

 Cycle   3  Pass 1  IDiag  1:
 E= -79.8304206555114     Delta-E=       -0.000000025516 Rises=F Damp=F
 DIIS: error= 5.24D-05 at cycle   3 NSaved=   3.
 NSaved= 3 IEnMin= 3 EnMin= -79.8304206555114     IErMin= 3 ErrMin= 5.24D-05
 ErrMax= 5.24D-05  0.00D+00 EMaxC= 1.00D-01 BMatC= 8.56D-08 BMatP= 1.03D-07
 IDIUse=1 WtCom= 1.00D+00 WtEn= 0.00D+00
 Coeff-Com: -0.132D-01 0.476D+00 0.537D+00
 Coeff:     -0.132D-01 0.476D+00 0.537D+00
 Gap=     0.445 Goal=   None    Shift=    0.000
 RMSDP=6.50D-06 MaxDP=6.03D-05 DE=-2.55D-08 OVMax= 7.55D-05

 Cycle   4  Pass 1  IDiag  1:
 E= -79.8304207427884     Delta-E=       -0.000000087277 Rises=F Damp=F
 DIIS: error= 5.89D-06 at cycle   4 NSaved=   4.
 NSaved= 4 IEnMin= 4 EnMin= -79.8304207427884     IErMin= 4 ErrMin= 5.89D-06
 ErrMax= 5.89D-06  0.00D+00 EMaxC= 1.00D-01 BMatC= 1.20D-09 BMatP= 8.56D-08
 IDIUse=1 WtCom= 1.00D+00 WtEn= 0.00D+00
 Coeff-Com: -0.926D-02 0.115D+00 0.184D+00 0.711D+00
 Coeff:     -0.926D-02 0.115D+00 0.184D+00 0.711D+00
 Gap=     0.445 Goal=   None    Shift=    0.000
 RMSDP=6.51D-07 MaxDP=4.58D-06 DE=-8.73D-08 OVMax= 8.29D-06

 Cycle   5  Pass 1  IDiag  1:
 E= -79.8304207439387     Delta-E=       -0.000000001150 Rises=F Damp=F
 DIIS: error= 2.13D-07 at cycle   5 NSaved=   5.
 NSaved= 5 IEnMin= 5 EnMin= -79.8304207439387     IErMin= 5 ErrMin= 2.13D-07
 ErrMax= 2.13D-07  0.00D+00 EMaxC= 1.00D-01 BMatC= 1.23D-12 BMatP= 1.20D-09
 IDIUse=1 WtCom= 1.00D+00 WtEn= 0.00D+00
 Coeff-Com: -0.198D-03-0.514D-03 0.432D-02 0.221D-01 0.974D+00
 Coeff:     -0.198D-03-0.514D-03 0.432D-02 0.221D-01 0.974D+00
 Gap=     0.445 Goal=   None    Shift=    0.000
 RMSDP=3.91D-08 MaxDP=2.43D-07 DE=-1.15D-09 OVMax= 4.58D-07

 Cycle   6  Pass 1  IDiag  1:
 E= -79.8304207439399     Delta-E=       -0.000000000001 Rises=F Damp=F
 DIIS: error= 1.19D-08 at cycle   6 NSaved=   6.
 NSaved= 6 IEnMin= 6 EnMin= -79.8304207439399     IErMin= 6 ErrMin= 1.19D-08
 ErrMax= 1.19D-08  0.00D+00 EMaxC= 1.00D-01 BMatC= 5.06D-15 BMatP= 1.23D-12
 IDIUse=1 WtCom= 1.00D+00 WtEn= 0.00D+00
 Coeff-Com:  0.210D-04-0.276D-03-0.642D-03-0.126D-02-0.716D-02 0.101D+01
 Coeff:      0.210D-04-0.276D-03-0.642D-03-0.126D-02-0.716D-02 0.101D+01
 Gap=     0.445 Goal=   None    Shift=    0.000
 RMSDP=2.53D-09 MaxDP=1.59D-08 DE=-1.22D-12 OVMax= 2.58D-08

 SCF Done:  E(RB3LYP) =  -79.8304207439     A.U. after    6 cycles
            NFock=  6  Conv=0.25D-08     -V/T= 2.0108
 KE= 7.897404087376D+01 PE=-2.680171469506D+02 EE= 6.710673295303D+01
 Leave Link  502 at Tue May 14 14:05:21 2024, MaxMem=  1610612736 cpu:               0.8 elap:               0.8
 (Enter /Applications//g16/l701.exe)
 ... and contract with generalized density number  0.
 Compute integral first derivatives.
 Leave Link  701 at Tue May 14 14:05:21 2024, MaxMem=  1610612736 cpu:               0.1 elap:               0.1
 (Enter /Applications//g16/l702.exe)
 L702 exits ... SP integral derivatives will be done elsewhere.
 Leave Link  702 at Tue May 14 14:05:21 2024, MaxMem=  1610612736 cpu:               0.0 elap:               0.0
 (Enter /Applications//g16/l703.exe)
 Integral derivatives from FoFJK, PRISM(SPDF).
 Compute integral first derivatives, UseDBF=F ICtDFT=           0.
 Calling FoFJK, ICntrl=      2127 FMM=F ISym2X=1 I1Cent= 0 IOpClX= 0 NMat=1 NMatS=1 NMatT=0.
 FoFJK:  IHMeth= 1 ICntrl=    2127 DoSepK=F KAlg= 0 I1Cent=           0 FoldK=F
 IRaf=         0 NMat=       1 IRICut=       1 DoRegI=T DoRafI=F ISym2E= 1 IDoP0=0 IntGTp=1.
 FoFCou: FMM=F IPFlag=           0 FMFlag=      100000 FMFlg1=         800
         NFxFlg=           0 DoJE=F BraDBF=F KetDBF=F FulRan=T
[...]
     13 -0.548218D-02 -0.548207D-02  0.334243D-03  0.152930D-01 -0.108951D-02
     14  0.398674D-02 -0.109187D-02 -0.108951D-02  0.152930D-01  0.334243D-03
     15 -0.108952D-02  0.398674D-02 -0.109188D-02  0.152931D-01 -0.548220D-02
     16 -0.109187D-02 -0.108951D-02  0.398674D-02  0.152930D-01 -0.548205D-02
     17 -0.111258D-02 -0.111154D-02  0.297962D-03 -0.163164D-01  0.553993D-02
     18 -0.111154D-02  0.297950D-03 -0.111258D-02 -0.163163D-01  0.553948D-02
     19  0.297962D-03 -0.111258D-02 -0.111154D-02 -0.163164D-01  0.261884D-03
     20  0.000000D+00  0.299661D-02 -0.299677D-02  0.256716D-05  0.000000D+00
     21  0.549163D-03  0.354596D-02 -0.409573D-02  0.256094D-05  0.354596D-02
     22 -0.549795D-03  0.409558D-02 -0.354639D-02  0.255462D-05 -0.354639D-02
     23 -0.354638D-02 -0.549797D-03  0.409558D-02  0.257348D-05 -0.549789D-03
     24 -0.299677D-02  0.000000D+00  0.299662D-02  0.256725D-05  0.299662D-02
     25 -0.409573D-02  0.549171D-03  0.354596D-02  0.256094D-05 -0.409573D-02
     26  0.354597D-02 -0.409573D-02  0.549168D-03  0.257970D-05  0.549168D-03
     27  0.409558D-02 -0.354638D-02 -0.549789D-03  0.257348D-05  0.409558D-02
     28  0.299662D-02 -0.299676D-02  0.000000D+00  0.256716D-05 -0.299677D-02
                6             7             8             9            10 
      6  0.338252D+00
      7  0.301568D-02  0.338252D+00
      8 -0.111258D-02  0.297962D-03  0.536015D-01
      9  0.297950D-03 -0.111154D-02  0.965581D-02  0.536015D-01
     10 -0.108951D-02 -0.109187D-02 -0.412450D-01 -0.412447D-01  0.104741D+00
     11 -0.111154D-02 -0.111258D-02  0.965582D-02  0.965581D-02  0.141495D-01
     12  0.398674D-02 -0.108952D-02 -0.412447D-01  0.141495D-01 -0.203432D-01
     13 -0.109187D-02  0.398674D-02  0.141495D-01 -0.412450D-01 -0.203432D-01
     14 -0.548207D-02 -0.548218D-02 -0.395146D-02 -0.395419D-02  0.177065D-01
     15  0.334244D-03 -0.548207D-02 -0.395419D-02  0.453142D-02 -0.726950D-02
     16 -0.548220D-02  0.334243D-03  0.453143D-02 -0.395147D-02 -0.727440D-02
     17  0.553948D-02  0.261884D-03  0.300528D-02  0.297753D-03 -0.395419D-02
     18  0.261901D-03  0.553992D-02  0.296974D-03  0.300528D-02 -0.395147D-02
     19  0.553993D-02  0.553949D-02  0.297745D-03  0.296974D-03  0.453143D-02
     20 -0.299676D-02  0.299662D-02  0.686042D-02 -0.686059D-02  0.000000D+00
     21  0.549171D-03 -0.409573D-02  0.532183D-02 -0.609173D-02  0.204839D-02
     22  0.409558D-02 -0.549795D-03  0.609069D-02 -0.532200D-02 -0.204818D-02
     23 -0.354638D-02  0.409558D-02 -0.532199D-02 -0.769479D-03 -0.479488D-02
     24  0.000000D+00 -0.299677D-02 -0.686058D-02  0.000000D+00 -0.274667D-02
     25  0.354596D-02  0.549163D-03 -0.609172D-02  0.769113D-03 -0.684323D-02
     26 -0.409573D-02  0.354597D-02  0.769112D-03  0.532183D-02  0.479558D-02
     27 -0.549797D-03 -0.354638D-02 -0.769478D-03  0.609070D-02  0.684379D-02
     28  0.299661D-02  0.000000D+00  0.000000D+00  0.686042D-02  0.274723D-02
               11            12            13            14            15 
     11  0.536015D-01
     12 -0.412450D-01  0.104741D+00
     13 -0.412447D-01 -0.203432D-01  0.104741D+00
     14  0.453143D-02 -0.727441D-02 -0.726948D-02  0.104741D+00
     15 -0.395147D-02  0.177065D-01 -0.727441D-02 -0.203432D-01  0.104741D+00
     16 -0.395419D-02 -0.726950D-02  0.177065D-01 -0.203432D-01 -0.203432D-01
     17  0.296967D-03 -0.395147D-02  0.453143D-02 -0.412447D-01 -0.412450D-01
     18  0.297753D-03  0.453142D-02 -0.395419D-02 -0.412450D-01  0.141495D-01
     19  0.300528D-02 -0.395419D-02 -0.395146D-02  0.141495D-01 -0.412447D-01
     20  0.000000D+00  0.274722D-02 -0.274666D-02  0.000000D+00 -0.274665D-02
     21  0.769112D-03  0.479558D-02 -0.684322D-02  0.479558D-02  0.204839D-02
     22 -0.769478D-03  0.684380D-02 -0.479488D-02 -0.479488D-02  0.684380D-02
     23  0.609069D-02 -0.204819D-02  0.684380D-02 -0.204818D-02 -0.479488D-02
     24  0.686041D-02  0.000000D+00  0.274723D-02  0.274723D-02  0.000000D+00
     25  0.532182D-02  0.204839D-02  0.479558D-02 -0.684322D-02  0.479558D-02
     26 -0.609172D-02 -0.684323D-02  0.204838D-02  0.204838D-02 -0.684323D-02
     27 -0.532200D-02 -0.479488D-02 -0.204818D-02  0.684380D-02 -0.204819D-02
     28 -0.686059D-02 -0.274665D-02  0.000000D+00 -0.274666D-02  0.274722D-02
               16            17            18            19            20 
     16  0.104741D+00
     17  0.141495D-01  0.536015D-01
     18 -0.412447D-01  0.965581D-02  0.536015D-01
     19 -0.412450D-01  0.965582D-02  0.965581D-02  0.536015D-01
     20  0.274723D-02 -0.686059D-02  0.686042D-02  0.000000D+00  0.143510D-01
     21 -0.684323D-02  0.532182D-02  0.769113D-03 -0.609172D-02  0.378212D-02
     22 -0.204818D-02 -0.769478D-03 -0.532200D-02  0.609069D-02  0.378173D-02
     23  0.684379D-02 -0.532200D-02  0.609070D-02 -0.769478D-03  0.378173D-02
     24 -0.274667D-02  0.686041D-02  0.000000D+00 -0.686058D-02 -0.678713D-02
     25  0.204839D-02  0.769112D-03 -0.609173D-02  0.532183D-02 -0.678753D-02
     26  0.479558D-02 -0.609172D-02  0.532183D-02  0.769112D-03  0.378212D-02
     27 -0.479488D-02  0.609069D-02 -0.769479D-03 -0.532199D-02 -0.678674D-02
     28  0.000000D+00  0.000000D+00 -0.686059D-02  0.686042D-02 -0.678714D-02
               21            22            23            24            25 
     21  0.151724D-01
     22  0.419243D-02  0.151716D-01
     23 -0.760813D-02 -0.719744D-02  0.151716D-01
     24  0.378212D-02 -0.678674D-02  0.378173D-02  0.143510D-01
     25 -0.719783D-02  0.419243D-02  0.419242D-02  0.378212D-02  0.151724D-01
     26 -0.719783D-02 -0.760814D-02  0.419243D-02 -0.678752D-02 -0.719783D-02
     27  0.419242D-02 -0.719744D-02 -0.719744D-02  0.378173D-02 -0.760813D-02
     28 -0.678753D-02  0.378173D-02 -0.678674D-02 -0.678713D-02  0.378212D-02
               26            27            28 
     26  0.151724D-01
     27  0.419243D-02  0.151716D-01
     28  0.378212D-02  0.378173D-02  0.143510D-01
 Leave Link  716 at Tue May 14 14:05:31 2024, MaxMem=  1610612736 cpu:               0.0 elap:               0.0
 (Enter /Applications//g16/l103.exe)

 GradGradGradGradGradGradGradGradGradGradGradGradGradGradGradGradGradGrad
 Berny optimization.
 Red2BG is reusing G-inverse.
 Internal  Forces:  Max     0.000067759 RMS     0.000033805
 Search for a local minimum.
 Step number   1 out of a maximum of    2
 All quantities printed in internal units (Hartrees-Bohrs-Radians)
 Second derivative matrix not updated -- analytic derivatives used.
 ITU=  0
     Eigenvalues ---    0.00233   0.04651   0.04651   0.04870   0.04870
     Eigenvalues ---    0.12431   0.12610   0.12610   0.12867   0.18093
     Eigenvalues ---    0.18093   0.30682   0.33478   0.33478   0.33739
     Eigenvalues ---    0.33739   0.34570   0.34794
 Angle between quadratic step and forces=  70.72 degrees.
 Linear search not attempted -- first point.
 Iteration  1 RMS(Cart)=  0.00027547 RMS(Int)=  0.00000004
 Iteration  2 RMS(Cart)=  0.00000004 RMS(Int)=  0.00000000
 ITry= 1 IFail=0 DXMaxC= 5.43D-04 DCOld= 1.00D+10 DXMaxT= 3.00D-01 DXLimC= 3.00D+00 Rises=F
 ClnCor:  largest displacement from symmetrization is 1.75D-10 for atom     7.
 Variable       Old X    -DE/DX   Delta X   Delta X   Delta X     New X
                                 (Linear)    (Quad)   (Total)
    R1        2.07165  -0.00007   0.00000  -0.00019  -0.00019   2.07145
    R2        2.07165  -0.00007   0.00000  -0.00019  -0.00019   2.07145
    R3        2.07165  -0.00007   0.00000  -0.00019  -0.00019   2.07145
    R4        2.89244  -0.00007   0.00000  -0.00018  -0.00018   2.89226
    R5        2.07165  -0.00007   0.00000  -0.00019  -0.00019   2.07145
    R6        2.07165  -0.00007   0.00000  -0.00019  -0.00019   2.07145
    R7        2.07165  -0.00007   0.00000  -0.00019  -0.00019   2.07145
    A1        1.87666   0.00001   0.00000   0.00005   0.00005   1.87671
    A2        1.87666   0.00001   0.00000   0.00005   0.00005   1.87671
    A3        1.94350  -0.00001   0.00000  -0.00005  -0.00005   1.94345
    A4        1.87666   0.00001   0.00000   0.00005   0.00005   1.87671
    A5        1.94350  -0.00001   0.00000  -0.00005  -0.00005   1.94345
    A6        1.94350  -0.00001   0.00000  -0.00005  -0.00005   1.94345
    A7        1.94350  -0.00001   0.00000  -0.00005  -0.00005   1.94345
    A8        1.94350  -0.00001   0.00000  -0.00005  -0.00005   1.94345
    A9        1.94350  -0.00001   0.00000  -0.00005  -0.00005   1.94345
   A10        1.87666   0.00001   0.00000   0.00005   0.00005   1.87671
   A11        1.87666   0.00001   0.00000   0.00005   0.00005   1.87671
   A12        1.87666   0.00001   0.00000   0.00005   0.00005   1.87671
    D1        3.14107   0.00000   0.00000   0.00054   0.00054  -3.14158
    D2       -1.04772   0.00000   0.00000   0.00054   0.00054  -1.04718
    D3        1.04668   0.00000   0.00000   0.00054   0.00054   1.04721
    D4        1.04668   0.00000   0.00000   0.00054   0.00054   1.04721
    D5        3.14107   0.00000   0.00000   0.00054   0.00054  -3.14158
    D6       -1.04772   0.00000   0.00000   0.00054   0.00054  -1.04718
    D7       -1.04772   0.00000   0.00000   0.00054   0.00054  -1.04718
    D8        1.04668   0.00000   0.00000   0.00054   0.00054   1.04721
    D9        3.14107   0.00000   0.00000   0.00054   0.00054  -3.14158
         Item               Value     Threshold  Converged?
 Maximum Force            0.000068     0.000450     YES
 RMS     Force            0.000034     0.000300     YES
 Maximum Displacement     0.000543     0.001800     YES
 RMS     Displacement     0.000275     0.001200     YES
 Predicted change in Energy=-5.002130D-08
 Optimization completed.
    -- Stationary point found.
                           ----------------------------
                           !   Optimized Parameters   !
                           ! (Angstroms and Degrees)  !
 --------------------------                            --------------------------
 ! Name  Definition              Value          Derivative Info.                !
 --------------------------------------------------------------------------------
 ! R1    R(1,2)                  1.0963         -DE/DX =   -0.0001              !
 ! R2    R(1,3)                  1.0963         -DE/DX =   -0.0001              !
 ! R3    R(1,4)                  1.0963         -DE/DX =   -0.0001              !
 ! R4    R(1,5)                  1.5306         -DE/DX =   -0.0001              !
 ! R5    R(5,6)                  1.0963         -DE/DX =   -0.0001              !
 ! R6    R(5,7)                  1.0963         -DE/DX =   -0.0001              !
 ! R7    R(5,8)                  1.0963         -DE/DX =   -0.0001              !
 ! A1    A(2,1,3)              107.5245         -DE/DX =    0.0                 !
 ! A2    A(2,1,4)              107.5245         -DE/DX =    0.0                 !
 ! A3    A(2,1,5)              111.3541         -DE/DX =    0.0                 !
 ! A4    A(3,1,4)              107.5245         -DE/DX =    0.0                 !
 ! A5    A(3,1,5)              111.3541         -DE/DX =    0.0                 !
 ! A6    A(4,1,5)              111.3541         -DE/DX =    0.0                 !
 ! A7    A(1,5,6)              111.3541         -DE/DX =    0.0                 !
 ! A8    A(1,5,7)              111.3541         -DE/DX =    0.0                 !
 ! A9    A(1,5,8)              111.3541         -DE/DX =    0.0                 !
 ! A10   A(6,5,7)              107.5245         -DE/DX =    0.0                 !
 ! A11   A(6,5,8)              107.5245         -DE/DX =    0.0                 !
 ! A12   A(7,5,8)              107.5245         -DE/DX =    0.0                 !
 ! D1    D(2,1,5,6)           -180.0299         -DE/DX =    0.0                 !
 ! D2    D(2,1,5,7)            -60.0299         -DE/DX =    0.0                 !
 ! D3    D(2,1,5,8)             59.9701         -DE/DX =    0.0                 !
 ! D4    D(3,1,5,6)             59.9701         -DE/DX =    0.0                 !
 ! D5    D(3,1,5,7)           -180.0299         -DE/DX =    0.0                 !
 ! D6    D(3,1,5,8)            -60.0299         -DE/DX =    0.0                 !
 ! D7    D(4,1,5,6)            -60.0299         -DE/DX =    0.0                 !
 ! D8    D(4,1,5,7)             59.9701         -DE/DX =    0.0                 !
 ! D9    D(4,1,5,8)           -180.0299         -DE/DX =    0.0                 !
 --------------------------------------------------------------------------------
 GradGradGradGradGradGradGradGradGradGradGradGradGradGradGradGradGradGrad

 Leave Link  103 at Tue May 14 14:05:31 2024, MaxMem=  1610612736 cpu:               0.0 elap:               0.0
 (Enter /Applications//g16/l9999.exe)
 Dipole is zero, so no output in dipole orientation.

 ----------------------------------------------------------------------

 Electric dipole moment (input orientation):
 (Debye = 10**-18 statcoulomb cm , SI units = C m)
                  (au)            (Debye)         (10**-30 SI)
   Tot        0.000000D+00      0.000000D+00      0.000000D+00
   x          0.000000D+00      0.000000D+00      0.000000D+00
   y          0.000000D+00      0.000000D+00      0.000000D+00
   z          0.000000D+00      0.000000D+00      0.000000D+00

 Dipole polarizability, Alpha (input orientation).
 (esu units = cm**3 , SI units = C**2 m**2 J**-1)
 Alpha(0;0):
               (au)            (10**-24 esu)      (10**-40 SI)
   iso        0.229250D+02      0.339714D+01      0.377982D+01
   aniso      0.152176D+01      0.225501D+00      0.250904D+00
   xx         0.225869D+02      0.334703D+01      0.372408D+01
   yx         0.239100D+00      0.354309D-01      0.394222D-01
   yy         0.227560D+02      0.337209D+01      0.375195D+01
   zx         0.414210D+00      0.613796D-01      0.682941D-01
   zy         0.585766D+00      0.868016D-01      0.965798D-01
   zz         0.234322D+02      0.347229D+01      0.386344D+01

 ----------------------------------------------------------------------
 1\1\GINC-RYANS-IMAC\Freq\RB3LYP\6-31G(d)\C2H6\ROOT\14-May-2024\0\\#P G
 eom=AllCheck Guess=TCheck SCRF=Check GenChk RB3LYP/6-31G(d) Freq\\Titl
 e Card Required\\0,1\C,0.2956824435,0.9018668653,0.0038328875\H,0.6433
 249901,-0.1373631236,-0.0269991653\H,0.6445251136,1.3939394034,-0.9115
 786779\H,-0.7999942873,0.8844972995,-0.0277222264\C,0.8058950754,1.623
 3972703,1.2535720403\H,0.4586880594,2.6627807196,1.2841376858\H,0.4566
 173677,1.1316328751,2.1689833074\H,1.9015713131,1.6403052326,1.2853938
 598\\Version=EM64M-G16RevB.01\State=1-A1\HF=-79.8304207\RMSD=1.771e-10
 \RMSF=3.450e-05\ZeroPoint=0.075237\Thermal=0.0787038\Dipole=0.,0.,0.\D
 ipoleDeriv=0.1142011,-0.0052928,-0.0092,-0.0053239,0.1104479,-0.012991
 5,-0.0091838,-0.0130064,0.0954361,0.0335062,0.067644,-0.0087784,0.0547
 153,-0.1646096,-0.0415981,-0.0162384,-0.0204798,0.0244077,0.033344,-0.
 0414782,0.0544243,-0.0414823,0.0041948,0.0767218,0.0394903,0.0556107,-
 0.1442334,-0.1810513,-0.0208573,-0.0364545,-0.0079259,0.0499667,-0.022
 1246,-0.0140589,-0.0221312,0.0243889,0.1142011,-0.0053239,-0.0091821,-
 0.0052928,0.1104479,-0.0130042,-0.0092017,-0.0129938,0.0954361,0.03356
 35,0.0675689,-0.0088102,0.054652,-0.1646655,-0.0415582,-0.0162393,-0.0
 204219,0.0244063,0.0332865,-0.041488,0.0545051,-0.0415129,0.0042521,0.
 0766645,0.0395454,0.0555716,-0.1442333,-0.1810511,-0.0207739,-0.036502
 7,-0.0078307,0.0499652,-0.0221077,-0.0141139,-0.0221495,0.0243902\Pola
 r=22.5869037,0.2390997,22.7559593,0.4142104,0.5857661,23.4321714\Quadr
 upole=0.0852049,0.0426048,-0.1278097,-0.0602505,-0.1043579,-0.1475805\
 PG=D03 [C3(C1.C1),X(H6)]\NImag=0\\0.56452691,-0.01452424,0.55425754,-0
 .02515722,-0.03557674,0.51317601,-0.07811112,0.08059838,0.00197345,0.0
 7956584,0.08027645,-0.28388947,-0.00309622,-0.08790998,0.30827896,0.00
 178872,-0.00257366,-0.04946201,0.00014665,0.00607313,0.05221527,-0.078
 30279,-0.03865753,0.07101856,0.00353422,0.00498102,-0.01061618,0.07977
 495,-0.03865856,-0.10542370,0.10019083,-0.01172223,-0.01378112,0.02630
 877,0.04415655,0.11076436,0.07064973,0.09966684,-0.22773598,-0.0009875
 6,-0.00011268,0.00131611,-0.07632133,-0.10765762,0.24952076,-0.3115833
 9,-0.00196182,-0.00375018,-0.00973842,0.00004898,0.00036130,-0.0097764
 0,0.00029990,0.00021421,0.33812144,-0.00164287,-0.05041836,0.00082797,
 0.03275317,0.00181593,0.00010220,-0.01639065,-0.00049070,-0.00097897,0
 .00316294,0.04971939,-0.00319420,0.00082790,-0.04946085,-0.00004417,0.
 00037336,-0.00100830,0.02834145,-0.00127122,0.00133631,0.00586922,0.00
 216020,0.05221924,-0.09517234,-0.01900910,-0.03291738,0.00400723,0.004
 47103,0.00998460,0.00402636,0.00643424,0.00889987,-0.00939093,-0.01735
 097,-0.03005176,0.56452691,-0.01900242,-0.10861037,-0.04655506,-0.0126
 1333,-0.01394394,-0.02834526,0.00641833,0.00854885,0.01254885,-0.00025
 320,-0.00052056,0.00000543,-0.01452424,0.55425754,-0.03292124,-0.04655
 233,-0.16236656,0.00013967,-0.00042346,-0.00053778,-0.01085248,-0.0153
 4854,-0.02304981,-0.00045294,-0.00001986,-0.00056300,-0.02515722,-0.03
 557674,0.51317601,0.00400396,-0.01261015,0.00014389,0.00003441,-0.0015
 5141,-0.00249538,0.00015408,0.00058075,0.00051269,0.00055314,-0.000133
 26,0.00075718,-0.07804842,0.08050691,0.00194724,0.07949282,0.00446849,
 -0.01394330,-0.00042113,-0.00155285,0.00031324,-0.00294064,0.00015545,
 0.00086548,-0.00021369,-0.00047086,0.00034149,0.00034140,0.08018833,-0
 .28396053,-0.00303804,-0.08781395,0.30835570,0.00997808,-0.02835021,-0
 .00053515,-0.00249710,-0.00294213,-0.00476085,0.00075923,0.00054678,0.
 00105907,0.00007055,0.00082798,0.00117855,0.00176291,-0.00251329,-0.04
 945365,0.00017202,0.00600759,0.05221155,0.00402963,0.00641627,-0.01085
 734,0.00015275,0.00015496,0.00075901,0.00003477,-0.00138598,-0.0025950
 7,0.00055681,0.00072217,0.00026295,-0.07836574,-0.03868025,0.07111073,
 0.00353419,0.00497137,-0.01060457,0.07984822,0.00643861,0.00854558,-0.
 01534509,0.00058080,0.00086331,0.00054749,-0.00138521,-0.00094531,-0.0
 0366587,0.00029601,0.00046370,0.00089830,-0.03867994,-0.10536087,0.100
 12550,-0.01173710,-0.01377376,0.02631299,0.04418223,0.11069121,0.00890
 533,0.01254499,-0.02304981,0.00051215,-0.00021404,0.00105711,-0.002592
 96,-0.00366736,-0.00350265,-0.00037235,0.00041378,0.00105812,0.0707388
 0,0.09960370,-0.22773585,-0.00098498,-0.00010845,0.00130878,-0.0764170
 2,-0.10758978,0.24952062,-0.00939093,-0.00025182,-0.00045374,0.0005550
 8,-0.00047109,0.00007123,0.00055487,0.00029531,-0.00037250,0.00125778,
 -0.00112056,-0.00194064,-0.31158315,-0.00185164,-0.00381383,-0.0097241
 7,0.00005399,0.00035887,-0.00979062,0.00030455,0.00021105,0.33812118,-
 0.01735530,-0.00051792,-0.00002461,-0.00013398,0.00034309,0.00082798,0
 .00072201,0.00046214,0.00041316,-0.00112200,-0.00091089,-0.00333539,-0
 .00152935,-0.05041012,0.00083348,0.03275818,0.00180169,0.00011032,-0.0
 1638079,-0.00048382,-0.00098279,0.00304123,0.04971580,-0.03004925,0.00
 001322,-0.00056564,0.00075695,0.00034205,0.00118046,0.00026369,0.00089
 833,0.00105616,-0.00193980,-0.00333327,-0.00476009,-0.00325979,0.00083
 231,-0.04946933,-0.00005262,0.00037297,-0.00100831,0.02834130,-0.00128
 356,0.00134365,0.00593954,0.00215791,0.05222309\\0.00000934,0.00001320
 ,0.00002287,0.00001871,-0.00006365,-0.00000999,0.00001561,0.00002536,-
 0.00006011,-0.00006624,-0.00000686,-0.00000809,-0.00000934,-0.00001320
 ,-0.00002287,-0.00001551,0.00006477,0.00000803,-0.00001880,-0.00002310
 ,0.00006011,0.00006624,0.00000348,0.00001005\\\@


 "ANNA, YOU MUSN'T SPEAK OF OXIDIZED MURIATIC ACID
 ANYMORE, FROM NOW ON YOU MUST SAY CHLORINE."
   -- JENS JACOB BERZELIUS, IN 1820, TO HIS COOK, WHO HAD
 COMPLAINED OF THE SMELL OF THE FLASK SHE WAS CLEANING.
 Job cpu time:       0 days  0 hours  0 minutes  8.0 seconds.
 Elapsed time:       0 days  0 hours  0 minutes  7.9 seconds.
 File lengths (MBytes):  RWF=      6 Int=      0 D2E=      0 Chk=      1 Scr=      1
 Normal termination of Gaussian 16 at Tue May 14 14:05:31 2024.
