 Entering Gaussian System, Link 0=g16
 Input=TD_ethane.gjf
 Output=TD_ethane.log
 Initial command:
 /Applications//g16/l1.exe "/tmp/Gau-60579.inp" -scrdir="/tmp/"
 Entering Link 1 = /Applications//g16/l1.exe PID=     60580.
  
 Copyright (c) 1988-2017, Gaussian, Inc.  All Rights Reserved.
  
 This is part of the Gaussian(R) 16 program.  It is based on
 the Gaussian(R) 09 system (copyright 2009, Gaussian, Inc.),
 the Gaussian(R) 03 system (copyright 2003, Gaussian, Inc.),
 the Gaussian(R) 98 system (copyright 1998, Gaussian, Inc.),
 the Gaussian(R) 94 system (copyright 1995, Gaussian, Inc.),
 the Gaussian 92(TM) system (copyright 1992, Gaussian, Inc.),
 the Gaussian 90(TM) system (copyright 1990, Gaussian, Inc.),
 the Gaussian 88(TM) system (copyright 1988, Gaussian, Inc.),
 the Gaussian 86(TM) system (copyright 1986, Carnegie Mellon
 University), and the Gaussian 82(TM) system (copyright 1983,
 Carnegie Mellon University). Gaussian is a federally registered
 trademark of Gaussian, Inc.
  
 This software contains proprietary and confidential information,
 including trade secrets, belonging to Gaussian, Inc.
  
 This software is provided under written license and may be
 used, copied, transmitted, or stored only in accord with that
 written license.
  
 The following legend is applicable only to US Government
 contracts under FAR:
  
                    RESTRICTED RIGHTS LEGEND
  
 Use, reproduction and disclosure by the US Government is
 subject to restrictions as set forth in subparagraphs (a)
 and (c) of the Commercial Computer Software - Restricted
 Rights clause in FAR 52.227-19.
  
 Gaussian, Inc.
 340 Quinnipiac St., Bldg. 40, Wallingford CT 06492
  
  
 ---------------------------------------------------------------
 Warning -- This program may not be used in any manner that
 competes with the business of Gaussian, Inc. or will provide
 assistance to any competitor of Gaussian, Inc.  The licensee
 of this program is prohibited from giving any competitor of
 Gaussian, Inc. access to this program.  By using this program,
 the user acknowledges that Gaussian, Inc. is engaged in the
 business of creating and licensing software in the field of
 computational chemistry and represents and warrants to the
 licensee that it is not a competitor of Gaussian, Inc. and that
 it will not use this program in any manner prohibited above.
 ---------------------------------------------------------------
  

 Cite this work as:
 Gaussian 16, Revision B.01,
 M. J. Frisch, G. W. Trucks, H. B. Schlegel, G. E. Scuseria, 
 M. A. Robb, J. R. Cheeseman, G. Scalmani, V. Barone, 
 G. A. Petersson, H. Nakatsuji, X. Li, M. Caricato, A. V. Marenich, 
 J. Bloino, B. G. Janesko, R. Gomperts, B. Mennucci, H. P. Hratchian, 
 J. V. Ortiz, A. F. Izmaylov, J. L. Sonnenberg, D. Williams-Young, 
 F. Ding, F. Lipparini, F. Egidi, J. Goings, B. Peng, A. Petrone, 
 T. Henderson, D. Ranasinghe, V. G. Zakrzewski, J. Gao, N. Rega, 
 G. Zheng, W. Liang, M. Hada, M. Ehara, K. Toyota, R. Fukuda, 
 J. Hasegawa, M. Ishida, T. Nakajima, Y. Honda, O. Kitao, H. Nakai, 
 T. Vreven, K. Throssell, J. A. Montgomery, Jr., J. E. Peralta, 
 F. Ogliaro, M. J. Bearpark, J. J. Heyd, E. N. Brothers, K. N. Kudin, 
 V. N. Staroverov, T. A. Keith, R. Kobayashi, J. Normand, 
 K. Raghavachari, A. P. Rendell, J. C. Burant, S. S. Iyengar, 
 J. Tomasi, M. Cossi, J. M. Millam, M. Klene, C. Adamo, R. Cammi, 
 J. W. Ochterski, R. L. Martin, K. Morokuma, O. Farkas, 
 J. B. Foresman, and D. J. Fox, Gaussian, Inc., Wallingford CT, 2016.
 
 ******************************************
 Gaussian 16:  EM64M-G16RevB.01 20-Dec-2017
                17-May-2024 
 ******************************************
 %oldchk=ethane.chk
 %chk=TD_ethane.chk
 %nprocshared=5
 Will use up to    5 processors via shared memory.
 %mem=10GB
 Copying data from "ethane.chk" to current chk file "TD_ethane.chk"
 IOpt=  2 FromEx=T IUOpen= 4 IOptOp= 5 NList=   0 IFRang= 0 IUIn= 4 IUOut= 2.
 -------------------------------------------
 #p b3lyp/6-31g(d) guess=read td=(nstates=5)
 -------------------------------------------
 1/38=1,172=1/1;
 2/12=2,17=6,18=5,40=1/2;
 3/5=1,6=6,7=1,11=9,25=1,30=1,74=-5,116=-2/1,2,3,8;
 4/5=1/1;
 5/5=2,38=6/2;
 8/6=1,10=2,108=5/1;
 9/41=5,42=1,70=2/14;
 6/7=2,8=2,9=2,10=2/1;
 99/5=1,9=1/99;
 Leave Link    1 at Fri May 17 16:30:47 2024, MaxMem=  1342177280 cpu:               1.7 elap:               0.6
 (Enter /Applications//g16/l101.exe)
 -------------------
 Title Card Required
 -------------------
 Symbolic Z-matrix:
 Charge =  0 Multiplicity = 1
 C                     0.        0.        0.76531 
 H                    -0.51027   0.88435   1.16449 
 H                     1.02101  -0.00027   1.16449 
 H                    -0.51074  -0.88409   1.16449 
 C                     0.        0.       -0.76531 
 H                     0.51074  -0.88409  -1.16449 
 H                    -1.02101  -0.00027  -1.16449 
 H                     0.51027   0.88435  -1.16449 
 
 ITRead=  0  0  0  0  0  0  0  0
 MicOpt= -1 -1 -1 -1 -1 -1 -1 -1
 NAtoms=      8 NQM=        8 NQMF=       0 NMMI=      0 NMMIF=      0
                NMic=       0 NMicF=      0.
                    Isotopes and Nuclear Properties:
 (Nuclear quadrupole moments (NQMom) in fm**2, nuclear magnetic moments (NMagM)
  in nuclear magnetons)

  Atom         1           2           3           4           5           6           7           8
 IAtWgt=          12           1           1           1          12           1           1           1
 AtmWgt=  12.0000000   1.0078250   1.0078250   1.0078250  12.0000000   1.0078250   1.0078250   1.0078250
 NucSpn=           0           1           1           1           0           1           1           1
 AtZEff=  -0.0000000  -0.0000000  -0.0000000  -0.0000000  -0.0000000  -0.0000000  -0.0000000  -0.0000000
 NQMom=    0.0000000   0.0000000   0.0000000   0.0000000   0.0000000   0.0000000   0.0000000   0.0000000
 NMagM=    0.0000000   2.7928460   2.7928460   2.7928460   0.0000000   2.7928460   2.7928460   2.7928460
 AtZNuc=   6.0000000   1.0000000   1.0000000   1.0000000   6.0000000   1.0000000   1.0000000   1.0000000
 Leave Link  101 at Fri May 17 16:30:47 2024, MaxMem=  1342177280 cpu:               0.7 elap:               0.2
 (Enter /Applications//g16/l202.exe)
                          Input orientation:                          
 ---------------------------------------------------------------------
 Center     Atomic      Atomic             Coordinates (Angstroms)
 Number     Number       Type             X           Y           Z
 ---------------------------------------------------------------------
      1          6           0        0.000000    0.000000    0.765306
      2          1           0       -0.510273    0.884352    1.164490
      3          1           0        1.021008   -0.000267    1.164490
      4          1           0       -0.510735   -0.884085    1.164490
      5          6           0        0.000000    0.000000   -0.765306
      6          1           0        0.510735   -0.884085   -1.164490
      7          1           0       -1.021008   -0.000267   -1.164490
      8          1           0        0.510273    0.884352   -1.164490
 ---------------------------------------------------------------------
                    Distance matrix (angstroms):
                    1          2          3          4          5
     1  C    0.000000
     2  H    1.096269   0.000000
     3  H    1.096269   1.768438   0.000000
     4  H    1.096268   1.768437   1.768437   0.000000
     5  C    1.530612   2.183247   2.183248   2.183247   0.000000
     6  H    2.183247   3.097414   2.542766   2.543138   1.096268
     7  H    2.183248   2.543138   3.097415   2.542766   1.096269
     8  H    2.183247   2.542767   2.543138   3.097414   1.096269
                    6          7          8
     6  H    0.000000
     7  H    1.768437   0.000000
     8  H    1.768437   1.768438   0.000000
 Stoichiometry    C2H6
 Framework group  D3[C3(C.C),X(H6)]
 Deg. of freedom     4
 Full point group                 D3      NOp   6
 Largest Abelian subgroup         C2      NOp   2
 Largest concise Abelian subgroup C2      NOp   2
                         Standard orientation:                         
 ---------------------------------------------------------------------
 Center     Atomic      Atomic             Coordinates (Angstroms)
 Number     Number       Type             X           Y           Z
 ---------------------------------------------------------------------
      1          6           0        0.000000    0.000000    0.765306
      2          1           0       -0.510273    0.884352    1.164490
      3          1           0        1.021008   -0.000267    1.164490
      4          1           0       -0.510735   -0.884085    1.164490
      5          6           0        0.000000    0.000000   -0.765306
      6          1           0        0.510735   -0.884085   -1.164490
      7          1           0       -1.021008   -0.000267   -1.164490
      8          1           0        0.510273    0.884352   -1.164490
 ---------------------------------------------------------------------
 Rotational constants (GHZ):          80.1719891          19.8902575          19.8902575
 Leave Link  202 at Fri May 17 16:30:48 2024, MaxMem=  1342177280 cpu:               0.0 elap:               0.2
 (Enter /Applications//g16/l301.exe)
 Standard basis: 6-31G(d) (6D, 7F)
 Ernie: Thresh=  0.10000D-02 Tol=  0.10000D-05 Strict=F.
 There are    21 symmetry adapted cartesian basis functions of A   symmetry.
 There are    21 symmetry adapted cartesian basis functions of B   symmetry.
 There are    21 symmetry adapted basis functions of A   symmetry.
 There are    21 symmetry adapted basis functions of B   symmetry.
    42 basis functions,    80 primitive gaussians,    42 cartesian basis functions
     9 alpha electrons        9 beta electrons
       nuclear repulsion energy        42.1059464314 Hartrees.
 IExCor=  402 DFT=T Ex+Corr=B3LYP ExCW=0 ScaHFX=  0.200000
 ScaDFX=  0.800000  0.720000  1.000000  0.810000 ScalE2=  1.000000  1.000000
 IRadAn=      5 IRanWt=     -1 IRanGd=            0 ICorTp=0 IEmpDi=  4
 NAtoms=    8 NActive=    8 NUniq=    2 SFac= 4.00D+00 NAtFMM=   60 NAOKFM=F Big=F
 Integral buffers will be    131072 words long.
 Regular integral format.
 Two-electron integral symmetry is turned on.
 Leave Link  301 at Fri May 17 16:30:48 2024, MaxMem=  1342177280 cpu:               0.2 elap:               0.1
 (Enter /Applications//g16/l302.exe)
 NPDir=0 NMtPBC=     1 NCelOv=     1 NCel=       1 NClECP=     1 NCelD=      1
         NCelK=      1 NCelE2=     1 NClLst=     1 CellRange=     0.0.
 One-electron integrals computed using PRISM.
 One-electron integral symmetry used in STVInt
 NBasis=    42 RedAO= T EigKep=  8.49D-03  NBF=    21    21
 NBsUse=    42 1.00D-06 EigRej= -1.00D+00 NBFU=    21    21
 Precomputing XC quadrature grid using
 IXCGrd= 4 IRadAn=           5 IRanWt=          -1 IRanGd=           0 AccXCQ= 0.00D+00.
 Generated NRdTot=       0 NPtTot=           0 NUsed=           0 NTot=          32
 NSgBfM=    42    42    42    42    42 MxSgAt=     8 MxSgA2=     8.
 Leave Link  302 at Fri May 17 16:30:48 2024, MaxMem=  1342177280 cpu:               0.5 elap:               0.1
 (Enter /Applications//g16/l303.exe)
 DipDrv:  MaxL=1.
 Leave Link  303 at Fri May 17 16:30:48 2024, MaxMem=  1342177280 cpu:               0.1 elap:               0.1
 (Enter /Applications//g16/l308.exe)
 Leave Link  308 at Fri May 17 16:30:48 2024, MaxMem=  1342177280 cpu:               0.1 elap:               0.0
 (Enter /Applications//g16/l401.exe)
 Initial guess from the checkpoint file:  "TD_ethane.chk"
 B after Tr=    -0.000000   -0.000000   -0.000000
         Rot=    1.000000   -0.000000   -0.000000   -0.000000 Ang=   0.00 deg.
 Guess basis will be translated and rotated to current coordinates.
 JPrj=2 DoOrth=T DoCkMO=T.
 Initial guess orbital symmetries:
       Occupied  (A1) (A2) (A1) (A2) (E) (E) (A1) (E) (E)
       Virtual   (A1) (A2) (E) (E) (E) (E) (A2) (A1) (E) (E) (E)
                 (E) (A2) (E) (E) (A1) (E) (E) (A2) (A1) (A2) (E)
                 (E) (A1) (E) (E) (E) (E) (E) (E) (A2) (A1) (A2)
 The electronic state of the initial guess is 1-A1.
 Leave Link  401 at Fri May 17 16:30:48 2024, MaxMem=  1342177280 cpu:               0.3 elap:               0.1
 (Enter /Applications//g16/l502.exe)
 Keep R1 ints in memory in symmetry-blocked form, NReq=4733387.
 FoFCou: FMM=F IPFlag=           0 FMFlag=           0 FMFlg1=           0
         NFxFlg=           0 DoJE=F BraDBF=F KetDBF=F FulRan=T
         wScrn=  0.000000 ICntrl=       600 IOpCl=  0 I1Cent=           0 NGrid=           0
         NMat0=    1 NMatS0=    903 NMatT0=    0 NMatD0=    1 NMtDS0=    0 NMtDT0=    0
 Petite list used in FoFCou.
 Closed shell SCF:
 Using DIIS extrapolation, IDIIS=  1040.
 NGot=  1342177280 LenX=  1341966070 LenY=  1341963865
 Requested convergence on RMS density matrix=1.00D-08 within 128 cycles.
 Requested convergence on MAX density matrix=1.00D-06.
 Requested convergence on             energy=1.00D-06.
 No special actions if energy rises.
 An orbital has undefined symmetry, so N**3 symmetry is turned off.

 Cycle   1  Pass 1  IDiag  1:
 E= -79.8304207439250    
 DIIS: error= 7.59D-08 at cycle   1 NSaved=   1.
 NSaved= 1 IEnMin= 1 EnMin= -79.8304207439250     IErMin= 1 ErrMin= 7.59D-08
 ErrMax= 7.59D-08  0.00D+00 EMaxC= 1.00D-01 BMatC= 1.20D-13 BMatP= 1.20D-13
 IDIUse=1 WtCom= 1.00D+00 WtEn= 0.00D+00
 Coeff-Com:  0.100D+01
 Coeff:      0.100D+01
 Gap=     0.445 Goal=   None    Shift=    0.000
 RMSDP=1.20D-08 MaxDP=9.31D-08              OVMax= 1.68D-07

 Cycle   2  Pass 1  IDiag  1:
 E= -79.8304207439256     Delta-E=       -0.000000000001 Rises=F Damp=F
 DIIS: error= 5.78D-09 at cycle   2 NSaved=   2.
 NSaved= 2 IEnMin= 2 EnMin= -79.8304207439256     IErMin= 2 ErrMin= 5.78D-09
 ErrMax= 5.78D-09  0.00D+00 EMaxC= 1.00D-01 BMatC= 1.14D-15 BMatP= 1.20D-13
 IDIUse=1 WtCom= 1.00D+00 WtEn= 0.00D+00
 Coeff-Com: -0.317D-01 0.103D+01
 Coeff:     -0.317D-01 0.103D+01
 Gap=     0.445 Goal=   None    Shift=    0.000
 RMSDP=1.68D-09 MaxDP=1.13D-08 DE=-6.68D-13 OVMax= 1.95D-08

 SCF Done:  E(RB3LYP) =  -79.8304207439     A.U. after    2 cycles
            NFock=  2  Conv=0.17D-08     -V/T= 2.0108
 KE= 7.897404028034D+01 PE=-2.680171353075D+02 EE= 6.710672785180D+01
 Leave Link  502 at Fri May 17 16:30:49 2024, MaxMem=  1342177280 cpu:               1.0 elap:               0.2
 (Enter /Applications//g16/l801.exe)
 DoSCS=F DFT=T ScalE2(SS,OS)=  1.000000  1.000000
 ExpMin= 1.61D-01 ExpMax= 3.05D+03 ExpMxC= 4.57D+02 IAcc=3 IRadAn=         5 AccDes= 0.00D+00
 HarFok:  IExCor=  205 AccDes= 0.00D+00 IRadAn=         5 IDoV=-2 UseB2=F ITyADJ=14
 ICtDFT= 12500011 ScaDFX=  1.000000  1.000000  1.000000  1.000000
 Largest valence mixing into a core orbital is  5.49D-05
 Largest core mixing into a valence orbital is  9.77D-06
 Range of M.O.s used for correlation:     3    42
 NBasis=    42 NAE=     9 NBE=     9 NFC=     2 NFV=     0
 NROrb=     40 NOA=     7 NOB=     7 NVA=    33 NVB=    33
 Leave Link  801 at Fri May 17 16:30:49 2024, MaxMem=  1342177280 cpu:               0.5 elap:               0.1
 (Enter /Applications//g16/l914.exe)
 RHF ground state
 Keep R1, R2, and R3 ints in memory in symmetry-blocked form, NReq=6147688.
 FoFCou: FMM=F IPFlag=           0 FMFlag=           0 FMFlg1=           0
         NFxFlg=           0 DoJE=F BraDBF=F KetDBF=F FulRan=T
         wScrn=  0.000000 ICntrl=       600 IOpCl=  0 I1Cent=           0 NGrid=           0
         NMat0=    1 NMatS0=    903 NMatT0=    0 NMatD0=    1 NMtDS0=    0 NMtDT0=    0
 Petite list used in FoFCou.
 MDV=  1342177280 DFT=T DoStab=F Mixed=T DoRPA=T DoScal=F NonHer=T
 Making orbital integer symmetry assigments:
 Orbital symmetries:
       Occupied  (A1) (A2) (A1) (A2) (E) (E) (A1) (E) (E)
       Virtual   (A1) (A2) (E) (E) (E) (E) (A2) (A1) (E) (E) (E)
                 (E) (A2) (E) (E) (A1) (E) (E) (A2) (A1) (A2) (E)
                 (E) (A1) (E) (E) (E) (E) (E) (E) (A2) (A1) (A2)
    20 initial guesses have been made.
 Convergence on wavefunction:    0.001000000000000
 Davidson Disk Diagonalization:  ConvIn= 1.00D-03 SkipCon=T Conv= 1.00D-03.
 Max sub-space:  1386 roots to seek:    20 dimension of matrix:          462
 Iteration     1 Dimension    20 NMult     0 NNew     20
 CISAX will form    20 AO SS matrices at one time.
 NMat=    20 NSing=    20 JSym2X= 2.
 New state      4 was old state      9
 New state      5 was old state      4
 Excitation Energies [eV] at current iteration:
 Root      1 :    10.933730357874890
 Root      2 :    10.933730859397940
 Root      3 :    11.672966493504850
 Root      4 :    12.295860485519570
 Root      5 :    12.381398446394790
 Root      6 :    12.381398561194280
 Root      7 :    12.696361788119160
 Root      8 :    12.696361936776330
 Root      9 :    12.911928017187290
 Root     10 :    12.999055066678860
 Root     11 :    13.193739560739290
 Root     12 :    13.193739695808680
 Root     13 :    13.390346208789070
 Root     14 :    13.390347032435710
 Root     15 :    13.541370849646680
 Root     16 :    13.541371157830720
 Root     17 :    13.617229601003130
 Root     18 :    13.855916756293390
 Root     19 :    13.855917179935970
 Root     20 :    14.869424632429360
 Iteration     2 Dimension    30 NMult    20 NNew     10
 CISAX will form    10 AO SS matrices at one time.
 NMat=    10 NSing=    10 JSym2X= 2.
 Root      1 not converged, maximum delta is    0.016205421216218
 Root      2 not converged, maximum delta is    0.016205416124317
 Root      3 not converged, maximum delta is    0.027102686490701
 Root      4 not converged, maximum delta is    0.037307683857013
 Root      5 not converged, maximum delta is    0.038822249235316
 Excitation Energies [eV] at current iteration:
 Root      1 :    10.904874029131850   Change is   -0.028856328743035
 Root      2 :    10.904874526347750   Change is   -0.028856333050187
 Root      3 :    11.573973281612490   Change is   -0.098993211892360
 Root      4 :    12.264450797694910   Change is   -0.031409687824658
 Root      5 :    12.343719495430220   Change is   -0.037678950964564
 Iteration     3 Dimension    40 NMult    30 NNew     10
 CISAX will form    10 AO SS matrices at one time.
 NMat=    10 NSing=    10 JSym2X= 2.
 Root      1 not converged, maximum delta is    0.002116356150459
 Root      2 not converged, maximum delta is    0.002116353515820
 Root      3 not converged, maximum delta is    0.002978794543673
 Root      4 not converged, maximum delta is    0.002918270349500
 Root      5 not converged, maximum delta is    0.007871966845817
 Excitation Energies [eV] at current iteration:
 Root      1 :    10.903445287924290   Change is   -0.001428741207559
 Root      2 :    10.903445780313700   Change is   -0.001428746034054
 Root      3 :    11.571472492941230   Change is   -0.002500788671265
 Root      4 :    12.264010365618510   Change is   -0.000440432076402
 Root      5 :    12.341895818221420   Change is   -0.001823677208807
 Iteration     4 Dimension    50 NMult    40 NNew     10
 CISAX will form    10 AO SS matrices at one time.
 NMat=    10 NSing=    10 JSym2X= 2.
 Root      1 not converged, maximum delta is    0.001160326965990
 Root      2 not converged, maximum delta is    0.001160327117745
 Root      3 has converged.
 Root      4 has converged.
 Root      5 has converged.
 Excitation Energies [eV] at current iteration:
 Root      1 :    10.903297041821250   Change is   -0.000148246103043
 Root      2 :    10.903297534343570   Change is   -0.000148245970125
 Root      3 :    11.571330729400230   Change is   -0.000141763540994
 Root      4 :    12.264007062630890   Change is   -0.000003302987617
 Root      5 :    12.341755156112980   Change is   -0.000140662108439
 Iteration     5 Dimension    54 NMult    50 NNew      4
 CISAX will form     4 AO SS matrices at one time.
 NMat=     4 NSing=     4 JSym2X= 2.
 Root      1 has converged.
 Root      2 has converged.
 Root      3 has converged.
 Root      4 has converged.
 Root      5 has converged.
 Excitation Energies [eV] at current iteration:
 Root      1 :    10.903288519780040   Change is   -0.000008522041216
 Root      2 :    10.903289012328430   Change is   -0.000008522015136
 Root      3 :    11.571330729400200   Change is   -0.000000000000029
 Root      4 :    12.264007062630850   Change is   -0.000000000000041
 Root      5 :    12.341755153571790   Change is   -0.000000002541184
 Convergence achieved on expansion vectors.
 ***********************************************************************
 Excited states from <AA,BB:AA,BB> singles matrix:
 ***********************************************************************
 
 1PDM for each excited state written to RWF  633
 Ground to excited state transition densities written to RWF  633
 Ground to excited state transition electric dipole moments (Au):
       state          X           Y           Z        Dip. S.      Osc.
         1         0.0000     -0.0000     -0.0000      0.0000      0.0000
         2        -0.0000     -0.0000      0.0000      0.0000      0.0000
         3        -0.0000      0.0000      0.0000      0.0000      0.0000
         4         0.0000     -0.0000     -0.0000      0.0000      0.0000
         5         0.0000      0.3675      0.0000      0.1351      0.0408
 Ground to excited state transition velocity dipole moments (Au):
       state          X           Y           Z        Dip. S.      Osc.
         1         0.0000      0.0000      0.0000      0.0000      0.0000
         2         0.0000     -0.0000     -0.0000      0.0000      0.0000
         3        -0.0000     -0.0000      0.0000      0.0000      0.0000
         4         0.0000      0.0000      0.0000      0.0000      0.0000
         5        -0.0000     -0.1848     -0.0000      0.0342      0.0502
 Ground to excited state transition magnetic dipole moments (Au):
       state          X           Y           Z
         1         1.3697      0.0000     -0.0000
         2         0.0000     -1.3697     -0.0000
         3         0.0000     -0.0000      0.0000
         4         0.0000     -0.0000     -0.0000
         5        -0.0000      0.0008     -0.0000
 Ground to excited state transition velocity quadrupole moments (Au):
       state          XX          YY          ZZ          XY          XZ          YZ
         1         0.0000     -0.0000      0.0000      0.4518      0.0000     -0.9720
         2        -0.4518      0.4518      0.0000      0.0000     -0.9720     -0.0000
         3        -0.2517     -0.2517     -0.2396     -0.0000     -0.0000     -0.0000
         4        -0.0004     -0.0004     -0.0004     -0.0000     -0.0000     -0.0000
         5         0.0005     -0.0005      0.0000      0.0000      0.0009      0.0000
 <0|del|b> * <b|rxdel|0> + <0|del|b> * <b|delr+rdel|0>
 Rotatory Strengths (R) in cgs (10**-40 erg-esu-cm/Gauss)
       state          XX          YY          ZZ    R(velocity)    E-M Angle
         1         0.0000      0.0015      0.0090      0.0035       90.00
         2         0.0008      0.0000      0.0049      0.0019       90.00
         3         0.0000      0.0000      0.0000      0.0000       90.00
         4        -0.0000     -0.0000     -0.0000     -0.0000       90.00
         5         0.0144     -0.0000     -0.2532     -0.0796       90.00
 1/2[<0|r|b>*<b|rxdel|0> + (<0|rxdel|b>*<b|r|0>)*]
 Rotatory Strengths (R) in cgs (10**-40 erg-esu-cm/Gauss)
       state          XX          YY          ZZ     R(length)
         1        -0.0039      0.0000     -0.0000     -0.0013
         2         0.0000     -0.0028      0.0000     -0.0009
         3         0.0000      0.0000     -0.0000     -0.0000
         4        -0.0000     -0.0000     -0.0000     -0.0000
         5         0.0000     -0.2153      0.0000     -0.0718
  1/2[<0|del|b>*<b|r|0> + (<0|r|b>*<b|del|0>)*] (Au)
       state          X           Y           Z        Dip. S.   Osc.(frdel)
         1         0.0000     -0.0000     -0.0000     -0.0000     -0.0000
         2        -0.0000      0.0000     -0.0000     -0.0000     -0.0000
         3         0.0000     -0.0000      0.0000     -0.0000     -0.0000
         4         0.0000     -0.0000     -0.0000      0.0000      0.0000
         5        -0.0000     -0.0679     -0.0000      0.0679      0.0453

 Excitation energies and oscillator strengths:
 
 Excited State   1:      Singlet-E     10.9033 eV  113.71 nm  f=0.0000  <S**2>=0.000
       9 -> 10         0.70497
 This state for optimization and/or second-order correction.
 Total Energy, E(TD-HF/TD-DFT) =  -79.4297322635    
 Copying the excited state density for this state as the 1-particle RhoCI density.
 
 Excited State   2:      Singlet-E     10.9033 eV  113.71 nm  f=0.0000  <S**2>=0.000
       8 -> 10         0.70497
 
 Excited State   3:      Singlet-A1    11.5713 eV  107.15 nm  f=0.0000  <S**2>=0.000
       7 -> 10         0.69995
 
 Excited state symmetry could not be determined.
 Excited State   4:      Singlet-?Sym   12.2640 eV  101.10 nm  f=0.0000  <S**2>=0.000
       8 -> 13         0.49811
       9 -> 12         0.49811
 
 Excited State   5:      Singlet-E     12.3418 eV  100.46 nm  f=0.0408  <S**2>=0.000
       7 -> 13        -0.12007
       8 -> 13        -0.23764
       9 -> 11         0.60483
       9 -> 12         0.23764
 SavETr:  write IOETrn=   770 NScale= 10 NData=  16 NLR=1 NState=    5 LETran=     100.
 Leave Link  914 at Fri May 17 16:30:57 2024, MaxMem=  1342177280 cpu:              30.7 elap:               7.1
 (Enter /Applications//g16/l601.exe)
 Copying SCF densities to generalized density rwf, IOpCl= 0 IROHF=0.

 **********************************************************************

            Population analysis using the SCF Density.

 **********************************************************************

 Orbital symmetries:
       Occupied  (A1) (A2) (A1) (A2) (E) (E) (A1) (E) (E)
       Virtual   (A1) (A2) (E) (E) (E) (E) (A2) (A1) (E) (E) (E)
                 (E) (A2) (E) (E) (A1) (E) (E) (A2) (A1) (A2) (E)
                 (E) (A1) (E) (E) (E) (E) (E) (E) (A2) (A1) (A2)
 The electronic state is 1-A1.
 Alpha  occ. eigenvalues --  -10.17241 -10.17220  -0.74738  -0.61195  -0.43005
 Alpha  occ. eigenvalues --   -0.43005  -0.36285  -0.34006  -0.34006
 Alpha virt. eigenvalues --    0.10476   0.15600   0.16365   0.16365   0.19021
 Alpha virt. eigenvalues --    0.19021   0.24251   0.51316   0.54375   0.54375
 Alpha virt. eigenvalues --    0.63685   0.63685   0.66845   0.88293   0.88293
 Alpha virt. eigenvalues --    0.90643   0.91955   0.91955   0.97916   1.06590
 Alpha virt. eigenvalues --    1.43932   1.52626   1.52626   1.93225   1.98082
 Alpha virt. eigenvalues --    1.98082   2.27042   2.27042   2.33304   2.33304
 Alpha virt. eigenvalues --    2.58715   4.14483   4.36587
          Condensed to atoms (all electrons):
               1          2          3          4          5          6
     1  C    5.012087   0.382746   0.382746   0.382746   0.376121  -0.034550
     2  H    0.382746   0.574882  -0.032366  -0.032366  -0.034550   0.004638
     3  H    0.382746  -0.032366   0.574882  -0.032366  -0.034550  -0.003630
     4  H    0.382746  -0.032366  -0.032366   0.574882  -0.034550  -0.003620
     5  C    0.376121  -0.034550  -0.034550  -0.034550   5.012087   0.382746
     6  H   -0.034550   0.004638  -0.003630  -0.003620   0.382746   0.574882
     7  H   -0.034550  -0.003620   0.004638  -0.003630   0.382746  -0.032366
     8  H   -0.034550  -0.003630  -0.003620   0.004638   0.382746  -0.032366
               7          8
     1  C   -0.034550  -0.034550
     2  H   -0.003620  -0.003630
     3  H    0.004638  -0.003620
     4  H   -0.003630   0.004638
     5  C    0.382746   0.382746
     6  H   -0.032366  -0.032366
     7  H    0.574882  -0.032366
     8  H   -0.032366   0.574882
 Mulliken charges:
               1
     1  C   -0.432798
     2  H    0.144266
     3  H    0.144266
     4  H    0.144266
     5  C   -0.432798
     6  H    0.144266
     7  H    0.144266
     8  H    0.144266
 Sum of Mulliken charges =   0.00000
 Mulliken charges with hydrogens summed into heavy atoms:
               1
     1  C    0.000000
     5  C    0.000000
 Electronic spatial extent (au):  <R**2>=            109.6934
 Charge=              0.0000 electrons
 Dipole moment (field-independent basis, Debye):
    X=             -0.0000    Y=              0.0000    Z=             -0.0000  Tot=              0.0000
 Quadrupole moment (field-independent basis, Debye-Ang):
   XX=            -14.7148   YY=            -14.7148   ZZ=            -15.2306
   XY=             -0.0000   XZ=             -0.0000   YZ=              0.0000
 Traceless Quadrupole moment (field-independent basis, Debye-Ang):
   XX=              0.1719   YY=              0.1719   ZZ=             -0.3438
   XY=             -0.0000   XZ=             -0.0000   YZ=              0.0000
 Octapole moment (field-independent basis, Debye-Ang**2):
  XXX=             -0.0000  YYY=              0.0007  ZZZ=             -0.0000  XYY=              0.0000
  XXY=             -0.0007  XXZ=              0.0000  XZZ=             -0.0000  YZZ=              0.0000
  YYZ=             -0.0000  XYZ=             -0.0000
 Hexadecapole moment (field-independent basis, Debye-Ang**3):
 XXXX=            -28.6653 YYYY=            -28.6653 ZZZZ=            -92.7381 XXXY=              0.0000
 XXXZ=              1.1988 YYYX=              0.0000 YYYZ=              0.0000 ZZZX=              0.0000
 ZZZY=              0.0000 XXYY=             -9.5551 XXZZ=            -19.1617 YYZZ=            -19.1617
 XXYZ=             -0.0000 YYXZ=             -1.1988 ZZXY=             -0.0000
 N-N= 4.210594643142D+01 E-N=-2.680171356701D+02  KE= 7.897404028034D+01
 Symmetry A    KE= 4.073134926708D+01
 Symmetry B    KE= 3.824269101326D+01
 Leave Link  601 at Fri May 17 16:30:57 2024, MaxMem=  1342177280 cpu:               0.2 elap:               0.1
 (Enter /Applications//g16/l9999.exe)
 Electronic transition elements 
                 1             2             3             4             5 
      1  -0.794297D+02 -0.794297D+02 -0.794052D+02 -0.793797D+02 -0.793769D+02
      2   0.397599D-05  0.000000D+00  0.000000D+00  0.000000D+00  0.449698D-05
      3   0.000000D+00 -0.288217D-05  0.000000D+00  0.000000D+00  0.367499D+00
      4   0.000000D+00  0.000000D+00  0.127383D-05 -0.153995D-05  0.000000D+00
      5   0.433569D-05  0.000000D+00  0.000000D+00  0.000000D+00 -0.259984D-05
      6   0.000000D+00 -0.235444D-05  0.000000D+00  0.000000D+00 -0.184842D+00
      7   0.000000D+00  0.000000D+00  0.000000D+00  0.000000D+00  0.000000D+00
      8   0.136969D+01  0.314900D-04  0.000000D+00  0.000000D+00 -0.154672D-05
      9   0.314952D-04 -0.136969D+01  0.000000D+00  0.000000D+00  0.828429D-03
     10   0.000000D+00  0.000000D+00  0.000000D+00  0.000000D+00  0.000000D+00
     11   0.946579D-05 -0.451844D+00 -0.251749D+00 -0.371648D-03  0.503344D-03
     12  -0.946577D-05  0.451844D+00 -0.251749D+00 -0.371650D-03 -0.503347D-03
     13   0.000000D+00  0.000000D+00 -0.239575D+00 -0.434291D-03  0.000000D+00
     14   0.451844D+00  0.945965D-05  0.000000D+00  0.000000D+00  0.000000D+00
     15   0.228667D-04 -0.972024D+00  0.000000D+00  0.000000D+00  0.928640D-03
     16  -0.972025D+00 -0.228667D-04  0.000000D+00  0.000000D+00  0.195888D-05
 1\1\GINC-RYANS-IMAC\SP\RB3LYP TD-FC\6-31G(d)\C2H6\RYAN\17-May-2024\0\\
 #p b3lyp/6-31g(d) guess=read td=(nstates=5)\\Title Card Required\\0,1\
 C,0,0.,0.,0.765306\H,0,-0.510273,0.884352,1.16449\H,0,1.021008,-0.0002
 67,1.16449\H,0,-0.510735,-0.884085,1.16449\C,0,0.,0.,-0.765306\H,0,0.5
 10735,-0.884085,-1.16449\H,0,-1.021008,-0.000267,-1.16449\H,0,0.510273
 ,0.884352,-1.16449\\Version=EM64M-G16RevB.01\State=1-A1\HF=-79.8304207
 \RMSD=1.684e-09\PG=D03 [C3(C1.C1),X(H6)]\\@


 YOU WILL NEVER "FIND" TIME FOR ANYTHING.
 IF YOU WANT TIME, YOU MUST MAKE IT.

                        -- CHARLES BIXTON
 Job cpu time:       0 days  0 hours  0 minutes  7.5 seconds.
 Elapsed time:       0 days  0 hours  0 minutes  9.0 seconds.
 File lengths (MBytes):  RWF=     37 Int=      0 D2E=      0 Chk=      2 Scr=      1
 Normal termination of Gaussian 16 at Fri May 17 16:30:58 2024.
